[Molden Format]
[N_Atoms]
                   15
[Atoms] (AU)
N1          1      7          -2.25073627     -1.78532214     -0.19001512
C2          2      6          -2.30735248      0.77542884      0.15241973
N3          3      7           0.04247330      1.86327992      0.17340123
C4          4      6           2.35985686      0.67301693     -0.10770248
C5          5      6           2.22680122     -2.08084290     -0.46668797
C6          6      6          -0.05008421     -3.14352927     -0.48732350
O7          7      8          -4.22116734      1.94532892      0.40812880
O8          8      8           4.27588430      1.86737715     -0.05048740
H9          9      1          -0.31083143     -5.13998225     -0.73916936
H10        10      1           0.07959785      3.73120340      0.41925840
H11        11      1          -3.92412509     -2.63678785     -0.21608449
C12        12      6           4.66563032     -3.49802885     -0.78510201
H13        13      1           5.69867033     -2.80979233     -2.41505370
H14        14      1           5.87365959     -3.24184559      0.84969523
H15        15      1           4.31717752     -5.50177647     -1.03165163
[Charge] (Mulliken)
 -0.73853070436050583     
  0.95446563552256691     
 -0.59217963538956742     
  0.59019731648496609     
 -0.12530161694535202     
   7.8259173472076782E-002
 -0.52930115775573050     
 -0.55940145217240378     
  0.16883505782678221     
  0.33722705109516016     
  0.33255055652309562     
 -0.32580718679242526     
  0.14716511641800034     
  0.14718983946707320     
  0.11463200660341288     
[GTO] (AU)
   1
   s   6
  0.417351146E+04  0.183477216E-02
  0.627457911E+03  0.139946270E-01
  0.142902093E+03  0.685865518E-01
  0.402343293E+02  0.232240873E+00
  0.128202129E+02  0.469069948E+00
  0.439043701E+01  0.360455199E+00
   s   3
  0.116263619E+02 -0.114961182E+00
  0.271627981E+01 -0.169117479E+00
  0.772218397E+00  0.114585195E+01
   s   1
  0.212031497E+00  0.100000000E+01
   p   3
  0.116263619E+02  0.675797439E-01
  0.271627981E+01  0.323907296E+00
  0.772218397E+00  0.740895140E+00
   p   1
  0.212031497E+00  0.100000000E+01
   d   1
  0.800000000E+00  0.100000000E+01
 
   2
   s   6
  0.304752488E+04  0.183473713E-02
  0.457369518E+03  0.140373228E-01
  0.103948685E+03  0.688426223E-01
  0.292101553E+02  0.232184443E+00
  0.928666296E+01  0.467941348E+00
  0.316392696E+01  0.362311985E+00
   s   3
  0.786827235E+01 -0.119332420E+00
  0.188128854E+01 -0.160854152E+00
  0.544249258E+00  0.114345644E+01
   s   1
  0.168714478E+00  0.100000000E+01
   p   3
  0.786827235E+01  0.689990666E-01
  0.188128854E+01  0.316423961E+00
  0.544249258E+00  0.744308291E+00
   p   1
  0.168714478E+00  0.100000000E+01
   d   1
  0.800000000E+00  0.100000000E+01
 
   3
   s   6
  0.417351146E+04  0.183477216E-02
  0.627457911E+03  0.139946270E-01
  0.142902093E+03  0.685865518E-01
  0.402343293E+02  0.232240873E+00
  0.128202129E+02  0.469069948E+00
  0.439043701E+01  0.360455199E+00
   s   3
  0.116263619E+02 -0.114961182E+00
  0.271627981E+01 -0.169117479E+00
  0.772218397E+00  0.114585195E+01
   s   1
  0.212031497E+00  0.100000000E+01
   p   3
  0.116263619E+02  0.675797439E-01
  0.271627981E+01  0.323907296E+00
  0.772218397E+00  0.740895140E+00
   p   1
  0.212031497E+00  0.100000000E+01
   d   1
  0.800000000E+00  0.100000000E+01
 
   4
   s   6
  0.304752488E+04  0.183473713E-02
  0.457369518E+03  0.140373228E-01
  0.103948685E+03  0.688426223E-01
  0.292101553E+02  0.232184443E+00
  0.928666296E+01  0.467941348E+00
  0.316392696E+01  0.362311985E+00
   s   3
  0.786827235E+01 -0.119332420E+00
  0.188128854E+01 -0.160854152E+00
  0.544249258E+00  0.114345644E+01
   s   1
  0.168714478E+00  0.100000000E+01
   p   3
  0.786827235E+01  0.689990666E-01
  0.188128854E+01  0.316423961E+00
  0.544249258E+00  0.744308291E+00
   p   1
  0.168714478E+00  0.100000000E+01
   d   1
  0.800000000E+00  0.100000000E+01
 
   5
   s   6
  0.304752488E+04  0.183473713E-02
  0.457369518E+03  0.140373228E-01
  0.103948685E+03  0.688426223E-01
  0.292101553E+02  0.232184443E+00
  0.928666296E+01  0.467941348E+00
  0.316392696E+01  0.362311985E+00
   s   3
  0.786827235E+01 -0.119332420E+00
  0.188128854E+01 -0.160854152E+00
  0.544249258E+00  0.114345644E+01
   s   1
  0.168714478E+00  0.100000000E+01
   p   3
  0.786827235E+01  0.689990666E-01
  0.188128854E+01  0.316423961E+00
  0.544249258E+00  0.744308291E+00
   p   1
  0.168714478E+00  0.100000000E+01
   d   1
  0.800000000E+00  0.100000000E+01
 
   6
   s   6
  0.304752488E+04  0.183473713E-02
  0.457369518E+03  0.140373228E-01
  0.103948685E+03  0.688426223E-01
  0.292101553E+02  0.232184443E+00
  0.928666296E+01  0.467941348E+00
  0.316392696E+01  0.362311985E+00
   s   3
  0.786827235E+01 -0.119332420E+00
  0.188128854E+01 -0.160854152E+00
  0.544249258E+00  0.114345644E+01
   s   1
  0.168714478E+00  0.100000000E+01
   p   3
  0.786827235E+01  0.689990666E-01
  0.188128854E+01  0.316423961E+00
  0.544249258E+00  0.744308291E+00
   p   1
  0.168714478E+00  0.100000000E+01
   d   1
  0.800000000E+00  0.100000000E+01
 
   7
   s   6
  0.548467166E+04  0.183107443E-02
  0.825234946E+03  0.139501722E-01
  0.188046958E+03  0.684450781E-01
  0.529645000E+02  0.232714336E+00
  0.168975704E+02  0.470192898E+00
  0.579963534E+01  0.358520853E+00
   s   3
  0.155396162E+02 -0.110777550E+00
  0.359993359E+01 -0.148026263E+00
  0.101376175E+01  0.113076702E+01
   s   1
  0.270005823E+00  0.100000000E+01
   p   3
  0.155396162E+02  0.708742682E-01
  0.359993359E+01  0.339752839E+00
  0.101376175E+01  0.727158577E+00
   p   1
  0.270005823E+00  0.100000000E+01
   d   1
  0.800000000E+00  0.100000000E+01
 
   8
   s   6
  0.548467166E+04  0.183107443E-02
  0.825234946E+03  0.139501722E-01
  0.188046958E+03  0.684450781E-01
  0.529645000E+02  0.232714336E+00
  0.168975704E+02  0.470192898E+00
  0.579963534E+01  0.358520853E+00
   s   3
  0.155396162E+02 -0.110777550E+00
  0.359993359E+01 -0.148026263E+00
  0.101376175E+01  0.113076702E+01
   s   1
  0.270005823E+00  0.100000000E+01
   p   3
  0.155396162E+02  0.708742682E-01
  0.359993359E+01  0.339752839E+00
  0.101376175E+01  0.727158577E+00
   p   1
  0.270005823E+00  0.100000000E+01
   d   1
  0.800000000E+00  0.100000000E+01
 
   9
   s   3
  0.187311370E+02  0.334946043E-01
  0.282539437E+01  0.234726954E+00
  0.640121692E+00  0.813757326E+00
   s   1
  0.161277759E+00  0.100000000E+01
   p   1
  0.110000000E+01  0.100000000E+01
 
  10
   s   3
  0.187311370E+02  0.334946043E-01
  0.282539437E+01  0.234726954E+00
  0.640121692E+00  0.813757326E+00
   s   1
  0.161277759E+00  0.100000000E+01
   p   1
  0.110000000E+01  0.100000000E+01
 
  11
   s   3
  0.187311370E+02  0.334946043E-01
  0.282539437E+01  0.234726954E+00
  0.640121692E+00  0.813757326E+00
   s   1
  0.161277759E+00  0.100000000E+01
   p   1
  0.110000000E+01  0.100000000E+01
 
  12
   s   6
  0.304752488E+04  0.183473713E-02
  0.457369518E+03  0.140373228E-01
  0.103948685E+03  0.688426223E-01
  0.292101553E+02  0.232184443E+00
  0.928666296E+01  0.467941348E+00
  0.316392696E+01  0.362311985E+00
   s   3
  0.786827235E+01 -0.119332420E+00
  0.188128854E+01 -0.160854152E+00
  0.544249258E+00  0.114345644E+01
   s   1
  0.168714478E+00  0.100000000E+01
   p   3
  0.786827235E+01  0.689990666E-01
  0.188128854E+01  0.316423961E+00
  0.544249258E+00  0.744308291E+00
   p   1
  0.168714478E+00  0.100000000E+01
   d   1
  0.800000000E+00  0.100000000E+01
 
  13
   s   3
  0.187311370E+02  0.334946043E-01
  0.282539437E+01  0.234726954E+00
  0.640121692E+00  0.813757326E+00
   s   1
  0.161277759E+00  0.100000000E+01
   p   1
  0.110000000E+01  0.100000000E+01
 
  14
   s   3
  0.187311370E+02  0.334946043E-01
  0.282539437E+01  0.234726954E+00
  0.640121692E+00  0.813757326E+00
   s   1
  0.161277759E+00  0.100000000E+01
   p   1
  0.110000000E+01  0.100000000E+01
 
  15
   s   3
  0.187311370E+02  0.334946043E-01
  0.282539437E+01  0.234726954E+00
  0.640121692E+00  0.813757326E+00
   s   1
  0.161277759E+00  0.100000000E+01
   p   1
  0.110000000E+01  0.100000000E+01
 
[MO]
Sym=     1a  
Ene=   -20.5990
Spin= Alpha
Occup=    1.00000
   1        -0.00001312
   2        -0.00006010
   3         0.00033735
   4         0.00000264
   5        -0.00003551
   6        -0.00000486
   7         0.00005741
   8         0.00015870
   9         0.00001797
  10        -0.00000464
  11         0.00000138
  12        -0.00006355
  13         0.00013629
  14         0.00001452
  15         0.00000272
  16        -0.00001482
  17         0.00043390
  18        -0.00100726
  19         0.00014497
  20        -0.00008412
  21        -0.00001877
  22         0.00056124
  23        -0.00034408
  24        -0.00007519
  25        -0.00072729
  26        -0.00028227
  27        -0.00004633
  28         0.00049963
  29         0.00010832
  30        -0.00006426
  31        -0.00000427
  32        -0.00006873
  33         0.00029990
  34         0.00000731
  35         0.00002932
  36         0.00000351
  37        -0.00016857
  38        -0.00011566
  39        -0.00000654
  40        -0.00009836
  41         0.00008979
  42        -0.00005695
  43         0.00009139
  44         0.00001457
  45         0.00001791
  46         0.00001971
  47         0.00005253
  48        -0.00024747
  49        -0.00000635
  50         0.00000110
  51         0.00000049
  52         0.00038087
  53         0.00036950
  54         0.00002896
  55         0.00002161
  56         0.00002626
  57         0.00002702
  58        -0.00003170
  59        -0.00000392
  60         0.00000163
  61        -0.00000556
  62        -0.00002762
  63         0.00069049
  64        -0.00000657
  65         0.00001626
  66         0.00000252
  67        -0.00031654
  68         0.00017588
  69         0.00004014
  70         0.00000877
  71        -0.00000367
  72        -0.00000143
  73        -0.00001794
  74        -0.00000302
  75         0.00000064
  76         0.00000830
  77         0.00005340
  78        -0.00047010
  79        -0.00002207
  80         0.00002054
  81         0.00000392
  82        -0.00014234
  83        -0.00037428
  84        -0.00004220
  85         0.00004128
  86        -0.00003172
  87         0.00001820
  88        -0.00001000
  89        -0.00000271
  90        -0.00000723
  91         0.99464627
  92         0.02108839
  93         0.00505527
  94         0.00144338
  95        -0.00088032
  96        -0.00019260
  97         0.00014596
  98        -0.00009061
  99        -0.00001967
 100        -0.00370130
 101        -0.00394981
 102        -0.00418654
 103        -0.00028625
 104        -0.00006795
 105         0.00005270
 106         0.00001414
 107         0.00007017
 108        -0.00043647
 109        -0.00000634
 110        -0.00001044
 111        -0.00000105
 112         0.00008798
 113         0.00002864
 114        -0.00000086
 115         0.00003688
 116         0.00004273
 117         0.00003984
 118        -0.00000073
 119         0.00000008
 120         0.00000049
 121        -0.00000553
 122        -0.00012423
 123         0.00000694
 124         0.00001015
 125         0.00000098
 126        -0.00003209
 127        -0.00002343
 128        -0.00001426
 129         0.00004765
 130         0.00000707
 131        -0.00004097
 132        -0.00001617
 133        -0.00004782
 134        -0.00000977
 135         0.00000118
 136         0.00000173
 137         0.00000594
 138         0.00006452
 139         0.00000165
 140        -0.00000056
 141        -0.00000016
 142        -0.00001228
 143         0.00000445
 144         0.00000128
 145        -0.00000292
 146         0.00000189
 147         0.00000236
 148         0.00000469
 149         0.00000095
 150        -0.00000033
 151         0.00000147
 152        -0.00000524
 153        -0.00000048
 154         0.00000089
 155        -0.00000116
 156         0.00000146
 157        -0.00000527
 158        -0.00000034
 159         0.00000056
 160         0.00000140
 161        -0.00000153
 162         0.00000559
 163        -0.00000206
 164        -0.00000010
 165         0.00000010
Sym=     1a  
Ene=   -20.5990
Spin= Beta
Occup=    1.00000
   1        -0.00001312
   2        -0.00006010
   3         0.00033735
   4         0.00000264
   5        -0.00003551
   6        -0.00000486
   7         0.00005741
   8         0.00015870
   9         0.00001797
  10        -0.00000464
  11         0.00000138
  12        -0.00006355
  13         0.00013629
  14         0.00001452
  15         0.00000272
  16        -0.00001482
  17         0.00043390
  18        -0.00100726
  19         0.00014497
  20        -0.00008412
  21        -0.00001877
  22         0.00056124
  23        -0.00034408
  24        -0.00007519
  25        -0.00072729
  26        -0.00028227
  27        -0.00004633
  28         0.00049963
  29         0.00010832
  30        -0.00006426
  31        -0.00000427
  32        -0.00006873
  33         0.00029990
  34         0.00000731
  35         0.00002932
  36         0.00000351
  37        -0.00016857
  38        -0.00011566
  39        -0.00000654
  40        -0.00009836
  41         0.00008979
  42        -0.00005695
  43         0.00009139
  44         0.00001457
  45         0.00001791
  46         0.00001971
  47         0.00005253
  48        -0.00024747
  49        -0.00000635
  50         0.00000110
  51         0.00000049
  52         0.00038087
  53         0.00036950
  54         0.00002896
  55         0.00002161
  56         0.00002626
  57         0.00002702
  58        -0.00003170
  59        -0.00000392
  60         0.00000163
  61        -0.00000556
  62        -0.00002762
  63         0.00069049
  64        -0.00000657
  65         0.00001626
  66         0.00000252
  67        -0.00031654
  68         0.00017588
  69         0.00004014
  70         0.00000877
  71        -0.00000367
  72        -0.00000143
  73        -0.00001794
  74        -0.00000302
  75         0.00000064
  76         0.00000830
  77         0.00005340
  78        -0.00047010
  79        -0.00002207
  80         0.00002054
  81         0.00000392
  82        -0.00014234
  83        -0.00037428
  84        -0.00004220
  85         0.00004128
  86        -0.00003172
  87         0.00001820
  88        -0.00001000
  89        -0.00000271
  90        -0.00000723
  91         0.99464627
  92         0.02108839
  93         0.00505527
  94         0.00144338
  95        -0.00088032
  96        -0.00019260
  97         0.00014596
  98        -0.00009061
  99        -0.00001967
 100        -0.00370130
 101        -0.00394981
 102        -0.00418654
 103        -0.00028625
 104        -0.00006795
 105         0.00005270
 106         0.00001414
 107         0.00007017
 108        -0.00043647
 109        -0.00000634
 110        -0.00001044
 111        -0.00000105
 112         0.00008798
 113         0.00002864
 114        -0.00000086
 115         0.00003688
 116         0.00004273
 117         0.00003984
 118        -0.00000073
 119         0.00000008
 120         0.00000049
 121        -0.00000553
 122        -0.00012423
 123         0.00000694
 124         0.00001015
 125         0.00000098
 126        -0.00003209
 127        -0.00002343
 128        -0.00001426
 129         0.00004765
 130         0.00000707
 131        -0.00004097
 132        -0.00001617
 133        -0.00004782
 134        -0.00000977
 135         0.00000118
 136         0.00000173
 137         0.00000594
 138         0.00006452
 139         0.00000165
 140        -0.00000056
 141        -0.00000016
 142        -0.00001228
 143         0.00000445
 144         0.00000128
 145        -0.00000292
 146         0.00000189
 147         0.00000236
 148         0.00000469
 149         0.00000095
 150        -0.00000033
 151         0.00000147
 152        -0.00000524
 153        -0.00000048
 154         0.00000089
 155        -0.00000116
 156         0.00000146
 157        -0.00000527
 158        -0.00000034
 159         0.00000056
 160         0.00000140
 161        -0.00000153
 162         0.00000559
 163        -0.00000206
 164        -0.00000010
 165         0.00000010
Sym=     2a  
Ene=   -20.5500
Spin= Alpha
Occup=    1.00000
   1        -0.00000142
   2        -0.00000340
   3         0.00019555
   4         0.00000411
   5         0.00000568
   6         0.00000055
   7        -0.00000115
   8         0.00007226
   9         0.00000961
  10        -0.00000296
  11        -0.00001164
  12         0.00000513
  13         0.00001810
  14         0.00000293
  15        -0.00000361
  16         0.00001248
  17         0.00005254
  18         0.00002509
  19         0.00003223
  20         0.00001613
  21         0.00000046
  22        -0.00020548
  23         0.00031395
  24         0.00005253
  25         0.00002751
  26         0.00002878
  27         0.00002179
  28         0.00003382
  29         0.00000418
  30        -0.00000074
  31        -0.00001171
  32        -0.00004754
  33         0.00021595
  34        -0.00004888
  35         0.00001737
  36         0.00000489
  37         0.00027927
  38        -0.00001967
  39        -0.00001740
  40        -0.00010481
  41         0.00006950
  42        -0.00005627
  43        -0.00006085
  44        -0.00000532
  45         0.00002297
  46        -0.00001481
  47         0.00040842
  48        -0.00080016
  49        -0.00014763
  50        -0.00008137
  51        -0.00000299
  52        -0.00066114
  53        -0.00067584
  54        -0.00005480
  55        -0.00068734
  56        -0.00027056
  57        -0.00005029
  58        -0.00046501
  59        -0.00002282
  60        -0.00000916
  61        -0.00000256
  62        -0.00001027
  63        -0.00017921
  64        -0.00002144
  65        -0.00001541
  66        -0.00000091
  67         0.00022520
  68        -0.00007702
  69        -0.00002226
  70        -0.00001027
  71        -0.00000015
  72        -0.00001931
  73        -0.00009085
  74        -0.00001273
  75         0.00000799
  76         0.00000227
  77         0.00002671
  78         0.00009357
  79         0.00002212
  80         0.00000792
  81        -0.00000012
  82         0.00001816
  83        -0.00000850
  84        -0.00000207
  85         0.00003504
  86        -0.00003599
  87         0.00000302
  88        -0.00000970
  89        -0.00000322
  90        -0.00000555
  91         0.00001274
  92         0.00006141
  93        -0.00037953
  94         0.00000783
  95        -0.00000001
  96        -0.00000040
  97        -0.00008742
  98         0.00003064
  99         0.00000863
 100         0.00003217
 101         0.00003662
 102         0.00003682
 103         0.00000339
 104         0.00000073
 105        -0.00000022
 106         0.99463139
 107         0.02106847
 108         0.00525784
 109        -0.00141840
 110        -0.00083778
 111        -0.00003619
 112        -0.00017726
 113        -0.00008092
 114        -0.00000136
 115        -0.00375807
 116        -0.00398642
 117        -0.00419763
 118         0.00028488
 119         0.00001088
 120         0.00001755
 121         0.00000816
 122        -0.00000861
 123        -0.00000054
 124         0.00001216
 125         0.00000165
 126        -0.00004233
 127        -0.00004089
 128         0.00000384
 129         0.00003944
 130         0.00000502
 131        -0.00001023
 132        -0.00000486
 133        -0.00000314
 134        -0.00000445
 135        -0.00000043
 136         0.00000331
 137         0.00001907
 138        -0.00010989
 139         0.00001859
 140         0.00001254
 141         0.00000066
 142         0.00003527
 143        -0.00014528
 144        -0.00002103
 145        -0.00001747
 146         0.00001333
 147         0.00000548
 148         0.00001043
 149         0.00000281
 150         0.00000063
 151         0.00002329
 152        -0.00001089
 153         0.00000271
 154         0.00001094
 155         0.00000184
 156         0.00002332
 157        -0.00001115
 158         0.00000268
 159         0.00001106
 160         0.00000082
 161        -0.00001265
 162        -0.00007338
 163        -0.00000431
 164        -0.00000801
 165        -0.00000083
Sym=     2a  
Ene=   -20.5500
Spin= Beta
Occup=    1.00000
   1        -0.00000142
   2        -0.00000340
   3         0.00019555
   4         0.00000411
   5         0.00000568
   6         0.00000055
   7        -0.00000115
   8         0.00007226
   9         0.00000961
  10        -0.00000296
  11        -0.00001164
  12         0.00000513
  13         0.00001810
  14         0.00000293
  15        -0.00000361
  16         0.00001248
  17         0.00005254
  18         0.00002509
  19         0.00003223
  20         0.00001613
  21         0.00000046
  22        -0.00020548
  23         0.00031395
  24         0.00005253
  25         0.00002751
  26         0.00002878
  27         0.00002179
  28         0.00003382
  29         0.00000418
  30        -0.00000074
  31        -0.00001171
  32        -0.00004754
  33         0.00021595
  34        -0.00004888
  35         0.00001737
  36         0.00000489
  37         0.00027927
  38        -0.00001967
  39        -0.00001740
  40        -0.00010481
  41         0.00006950
  42        -0.00005627
  43        -0.00006085
  44        -0.00000532
  45         0.00002297
  46        -0.00001481
  47         0.00040842
  48        -0.00080016
  49        -0.00014763
  50        -0.00008137
  51        -0.00000299
  52        -0.00066114
  53        -0.00067584
  54        -0.00005480
  55        -0.00068734
  56        -0.00027056
  57        -0.00005029
  58        -0.00046501
  59        -0.00002282
  60        -0.00000916
  61        -0.00000256
  62        -0.00001027
  63        -0.00017921
  64        -0.00002144
  65        -0.00001541
  66        -0.00000091
  67         0.00022520
  68        -0.00007702
  69        -0.00002226
  70        -0.00001027
  71        -0.00000015
  72        -0.00001931
  73        -0.00009085
  74        -0.00001273
  75         0.00000799
  76         0.00000227
  77         0.00002671
  78         0.00009357
  79         0.00002212
  80         0.00000792
  81        -0.00000012
  82         0.00001816
  83        -0.00000850
  84        -0.00000207
  85         0.00003504
  86        -0.00003599
  87         0.00000302
  88        -0.00000970
  89        -0.00000322
  90        -0.00000555
  91         0.00001274
  92         0.00006141
  93        -0.00037953
  94         0.00000783
  95        -0.00000001
  96        -0.00000040
  97        -0.00008742
  98         0.00003064
  99         0.00000863
 100         0.00003217
 101         0.00003662
 102         0.00003682
 103         0.00000339
 104         0.00000073
 105        -0.00000022
 106         0.99463139
 107         0.02106847
 108         0.00525784
 109        -0.00141840
 110        -0.00083778
 111        -0.00003619
 112        -0.00017726
 113        -0.00008092
 114        -0.00000136
 115        -0.00375807
 116        -0.00398642
 117        -0.00419763
 118         0.00028488
 119         0.00001088
 120         0.00001755
 121         0.00000816
 122        -0.00000861
 123        -0.00000054
 124         0.00001216
 125         0.00000165
 126        -0.00004233
 127        -0.00004089
 128         0.00000384
 129         0.00003944
 130         0.00000502
 131        -0.00001023
 132        -0.00000486
 133        -0.00000314
 134        -0.00000445
 135        -0.00000043
 136         0.00000331
 137         0.00001907
 138        -0.00010989
 139         0.00001859
 140         0.00001254
 141         0.00000066
 142         0.00003527
 143        -0.00014528
 144        -0.00002103
 145        -0.00001747
 146         0.00001333
 147         0.00000548
 148         0.00001043
 149         0.00000281
 150         0.00000063
 151         0.00002329
 152        -0.00001089
 153         0.00000271
 154         0.00001094
 155         0.00000184
 156         0.00002332
 157        -0.00001115
 158         0.00000268
 159         0.00001106
 160         0.00000082
 161        -0.00001265
 162        -0.00007338
 163        -0.00000431
 164        -0.00000801
 165        -0.00000083
Sym=     3a  
Ene=   -15.6250
Spin= Alpha
Occup=    1.00000
   1         0.99496771
   2         0.02559775
   3        -0.00494014
   4         0.00007793
   5         0.00013467
   6         0.00001205
   7        -0.00128099
   8        -0.00105797
   9        -0.00007135
  10        -0.00332208
  11        -0.00338854
  12        -0.00332120
  13         0.00006092
  14         0.00000843
  15        -0.00001374
  16         0.00001652
  17         0.00021328
  18         0.00177558
  19         0.00002261
  20        -0.00025552
  21        -0.00003510
  22         0.00068010
  23        -0.00211154
  24        -0.00031605
  25        -0.00004298
  26        -0.00016399
  27        -0.00006560
  28        -0.00002969
  29        -0.00000520
  30        -0.00001369
  31        -0.00241435
  32        -0.00004432
  33        -0.00075046
  34         0.00005455
  35         0.00000559
  36        -0.00000213
  37        -0.00045160
  38         0.00072963
  39         0.00012079
  40         0.00006986
  41         0.00005003
  42        -0.00000208
  43        -0.00001302
  44        -0.00000615
  45         0.00000883
  46        -0.00000390
  47        -0.00003855
  48         0.00145680
  49        -0.00002902
  50         0.00000236
  51         0.00000185
  52        -0.00071198
  53        -0.00065094
  54        -0.00004865
  55         0.00000717
  56         0.00002404
  57        -0.00000928
  58         0.00000273
  59        -0.00000069
  60         0.00000507
  61         0.00002744
  62         0.00013681
  63        -0.00217345
  64         0.00001175
  65         0.00004019
  66         0.00000472
  67         0.00140991
  68        -0.00102726
  69        -0.00021115
  70        -0.00002798
  71         0.00003466
  72         0.00002941
  73         0.00001068
  74         0.00000492
  75         0.00000020
  76         0.00001076
  77         0.00015086
  78         0.00282633
  79        -0.00018608
  80         0.00010231
  81         0.00002345
  82        -0.00027191
  83         0.00189193
  84         0.00026574
  85        -0.00011662
  86        -0.00001397
  87        -0.00008465
  88         0.00004425
  89         0.00000784
  90         0.00000859
  91        -0.00002893
  92        -0.00017048
  93         0.00103085
  94        -0.00003871
  95        -0.00000196
  96         0.00000178
  97         0.00034379
  98         0.00021886
  99         0.00001099
 100        -0.00002727
 101        -0.00014958
 102        -0.00012443
 103         0.00004353
 104        -0.00000006
 105        -0.00000624
 106        -0.00001487
 107        -0.00006355
 108         0.00042569
 109         0.00001227
 110        -0.00000568
 111        -0.00000139
 112        -0.00007642
 113         0.00002507
 114         0.00000732
 115        -0.00003395
 116        -0.00004851
 117        -0.00004491
 118        -0.00001168
 119        -0.00000223
 120         0.00000009
 121         0.00001190
 122         0.00045487
 123         0.00004780
 124        -0.00003606
 125        -0.00000730
 126        -0.00010230
 127        -0.00000038
 128         0.00000740
 129        -0.00000138
 130        -0.00000060
 131         0.00011196
 132        -0.00002399
 133        -0.00012231
 134        -0.00006475
 135        -0.00000236
 136        -0.00000569
 137        -0.00000408
 138        -0.00055893
 139         0.00003186
 140        -0.00000906
 141        -0.00000289
 142         0.00012799
 143        -0.00007389
 144        -0.00001693
 145        -0.00001686
 146        -0.00001270
 147        -0.00002505
 148        -0.00000892
 149        -0.00000171
 150         0.00000240
 151         0.00001090
 152         0.00001420
 153         0.00000484
 154        -0.00000614
 155         0.00000810
 156         0.00001095
 157         0.00001438
 158         0.00000388
 159        -0.00000378
 160        -0.00000988
 161        -0.00000309
 162         0.00005578
 163         0.00000282
 164         0.00000703
 165         0.00000079
Sym=     3a  
Ene=   -15.6250
Spin= Beta
Occup=    1.00000
   1         0.99496771
   2         0.02559775
   3        -0.00494014
   4         0.00007793
   5         0.00013467
   6         0.00001205
   7        -0.00128099
   8        -0.00105797
   9        -0.00007135
  10        -0.00332208
  11        -0.00338854
  12        -0.00332120
  13         0.00006092
  14         0.00000843
  15        -0.00001374
  16         0.00001652
  17         0.00021328
  18         0.00177558
  19         0.00002261
  20        -0.00025552
  21        -0.00003510
  22         0.00068010
  23        -0.00211154
  24        -0.00031605
  25        -0.00004298
  26        -0.00016399
  27        -0.00006560
  28        -0.00002969
  29        -0.00000520
  30        -0.00001369
  31        -0.00241435
  32        -0.00004432
  33        -0.00075046
  34         0.00005455
  35         0.00000559
  36        -0.00000213
  37        -0.00045160
  38         0.00072963
  39         0.00012079
  40         0.00006986
  41         0.00005003
  42        -0.00000208
  43        -0.00001302
  44        -0.00000615
  45         0.00000883
  46        -0.00000390
  47        -0.00003855
  48         0.00145680
  49        -0.00002902
  50         0.00000236
  51         0.00000185
  52        -0.00071198
  53        -0.00065094
  54        -0.00004865
  55         0.00000717
  56         0.00002404
  57        -0.00000928
  58         0.00000273
  59        -0.00000069
  60         0.00000507
  61         0.00002744
  62         0.00013681
  63        -0.00217345
  64         0.00001175
  65         0.00004019
  66         0.00000472
  67         0.00140991
  68        -0.00102726
  69        -0.00021115
  70        -0.00002798