   This run of MOLCAS is using the pymolcas driver

                             OPE
                             OPE          NMOL  CASOP  ENMOLC A   SO
                 OPE        NMOLC        AS  OP EN  MO LC     AS  OP
                OPENM       OL CA        SO  PE NM  OL CA     SOP EN
                OP EN      MO   LC       AS  OP ENMOL  CASO   PENMOL
                OP  EN     MO   LC       AS  OP EN     MO     LC ASO
               OP   E  NMOL  C  AS       OP  EN MO     LC     AS  OP
               OP  E   NMO   LC AS        OPEN  MO     LCASOP EN   M
               O  PEN   MO  LCA  SO
            OPE   NMO   L   CAS    OP
        OPENMOL  CASOP     ENMOL   CASOPE
     OPENMOLCA   SOPENMOLCASOPEN   MOLCASOPE
    OPENMOLCAS   OP           EN   MOL    CAS
    OPENMOLCAS       OP  ENM        O     LCA
    OPENMOLCAS    OPEN  MOLCASO     P  E  NMO
    OPENMOLCAS     OP               E  N  MOL
    OPENMOLCA   SO           PENM   O  L  CAS    OPEN    MO    LCAS
    OPENMOLCA   SOP           ENM   O  L  CAS   OP  EN  MOLC  AS   O
    OPENMOLCA   SOPE           NM      O  LCA   S      OP  EN MO
    OPENMOLC                AS         O  PEN   M      OL  CA  SOPE
    OPENMO        LCASOPE  NMOL        C  ASO   P      ENMOLC     AS
    OPE     NMO      LCA  SO     P     E   NM   OL  CA SO  PE N   MO
          OPENMOLCA            SOPE   NMO        LCAS  O    P  ENMO
     OPENMOLCASOPENMOLCASOPENMOLCASOPENMOLCA
        OPENMOLCASOPENMOLCASOPENMOLCASOPE
            OPENMOLCASOPENMOLCASOPENM
               OPENMOLCASOPENMOLCA        version: 22.06
                   OPENMOLCASO
                       OPE                tag: 360-g995f53266

 OpenMolcas is free software; you can redistribute it and/or modify it
 under the terms of the GNU Lesser General Public License version 2.1.
 OpenMolcas is distributed in the hope that it will be useful, but it
 is provided "as is" and without any express or implied warranties.
 For more details see the full text of the license in the file
 LICENSE or in <http://www.gnu.org/licenses/>.

                 Copyright (C) The OpenMolcas Authors
           For the author list and the recommended citation,
                   consult the file CONTRIBUTORS.md

           *************************************************
           * pymolcas version py2.06                       *
           *   build bf02a7b0d12655ada6bc2259076d6962      *
           *   (after the EMIL interpreter by V. Veryazov) *
           *************************************************

configuration info
------------------
Host name: qcexmaster (Linux)
C Compiler ID: GNU
C flags: -std=gnu99
Fortran Compiler ID: GNU
Fortran flags: -fno-aggressive-loop-optimizations -cpp -fdefault-integer-8 -fmax-stack-var-size=1048576
Definitions: _MOLCAS_;_I8_;_LINUX_
Parallel: OFF (GA=OFF)


   -----------------------------------------------------------------------------------------------
  |
  |           Project: caspt2_2
  |    Submitted from: /scr/marlenne/_caspt2_2/Work
  |      Scratch area: /scr/marlenne/_caspt2_2/Work
  |   Save outputs to: /home/marlenne/thymine/Thymine/MOLCAS/3.Ground_State/1.GS_non-planar/CASPT2
  |            Molcas: /soft/OPENMOLCAS/CASPT2-GRADIENTS/OpenMolcas/build
  |
  | Scratch area is NOT empty
  |
  |    MOLCAS_DRIVER = /soft/bin/pymolcas
  |    MOLCAS_NPROCS = 1
  |     MOLCAS_PRINT = 3
  |    MOLCAS_SOURCE = /soft/OPENMOLCAS/CASPT2-GRADIENTS/OpenMolcas/build
  | MOLCAS_STRUCTURE = 0
  |
   -----------------------------------------------------------------------------------------------

++ ---------   Input file   ---------

&GATEWAY
   coord=$HomeDir/scf.Opt.xyz
   basis=6-31G**
   group=nosymm
   RICD

&SEWARD
   DoAnal

>>> COPY $HomeDir/caspt2.RasOrb INPORB

&RASSCF
Title
 Thymine
Spin
 1
Nactel
 14 0 0
Inactive
 26
Ras2
 10
CiRoot
 5 5 1
Lumorb
Levs
 0.8
Thrs
1.0D-06 1.0D-02 1.0D-02
Alter
2
 1 25 28
 1 36 40

&CASPT2
imag=0.2
ipea=0.0
multistate=all
nomult

-- ----------------------------------

--- Start Module: gateway at Thu Mar 30 15:56:25 2023 ---

()()()()()()()()()()()()()()()()()()()()()()()()()()()()()()()()()()()()()()()()()()()()()()()()()()

                                              &GATEWAY

                                   only a single process is used
                       available to each process: 4.0 GB of memory, 1 thread?
                                             pid: 8083
()()()()()()()()()()()()()()()()()()()()()()()()()()()()()()()()()()()()()()()()()()()()()()()()()()



 Basis Set     1 Label: N.6-31G**
 Basis set is read from library:basis_library 
 Basis Set Reference(s):
     P.C. Hariharan, J.A. Pople. Theor. Chim. Acta 28 (1973) 213-222. doi:10.1007/bf00533485
     NITROGEN (10s,4p,1d) -> [3s,2p,1d]




 Basis Set     2 Label: C.6-31G**
 Basis set is read from library:basis_library 
 Basis Set Reference(s):
     P.C. Hariharan, J.A. Pople. Theor. Chim. Acta 28 (1973) 213-222. doi:10.1007/bf00533485
     CARBON (10s,4p,1d) -> [3s,2p,1d]




 Basis Set     3 Label: N.6-31G**
 Basis set is read from library:basis_library 
 Basis Set Reference(s):
     P.C. Hariharan, J.A. Pople. Theor. Chim. Acta 28 (1973) 213-222. doi:10.1007/bf00533485
     NITROGEN (10s,4p,1d) -> [3s,2p,1d]




 Basis Set     4 Label: C.6-31G**
 Basis set is read from library:basis_library 
 Basis Set Reference(s):
     P.C. Hariharan, J.A. Pople. Theor. Chim. Acta 28 (1973) 213-222. doi:10.1007/bf00533485
     CARBON (10s,4p,1d) -> [3s,2p,1d]




 Basis Set     5 Label: O.6-31G**
 Basis set is read from library:basis_library 
 Basis Set Reference(s):
     P.C. Hariharan, J.A. Pople. Theor. Chim. Acta 28 (1973) 213-222. doi:10.1007/bf00533485
     OXYGEN (10s,4p,1d) -> [3s,2p,1d]




 Basis Set     6 Label: H.6-31G**
 Basis set is read from library:basis_library 
 Basis Set Reference(s):
     P.C. Hariharan, J.A. Pople. Theor. Chim. Acta 28 (1973) 213-222. doi:10.1007/bf00533485
     HYDROGEN (4s,1p) -> [2s,1p]




 Basis Set     7 Label: C.6-31G**
 Basis set is read from library:basis_library 
 Basis Set Reference(s):
     P.C. Hariharan, J.A. Pople. Theor. Chim. Acta 28 (1973) 213-222. doi:10.1007/bf00533485
     CARBON (10s,4p,1d) -> [3s,2p,1d]




 Basis Set     8 Label: H.6-31G**
 Basis set is read from library:basis_library 
 Basis Set Reference(s):
     P.C. Hariharan, J.A. Pople. Theor. Chim. Acta 28 (1973) 213-222. doi:10.1007/bf00533485
     HYDROGEN (4s,1p) -> [2s,1p]




 Basis Set    10 Label: N.6-31G**....acCD-aux-basis.
 On-the-fly basis set generation


 Basis Set    11 Label: N.6-31G**....acCD-aux-basis.
 On-the-fly basis set generation


 Basis Set    12 Label: C.6-31G**....acCD-aux-basis.
 On-the-fly basis set generation


 Basis Set    13 Label: C.6-31G**....acCD-aux-basis.
 On-the-fly basis set generation


 Basis Set    14 Label: N.6-31G**....acCD-aux-basis.
 On-the-fly basis set generation


 Basis Set    15 Label: N.6-31G**....acCD-aux-basis.
 On-the-fly basis set generation


 Basis Set    16 Label: C.6-31G**....acCD-aux-basis.
 On-the-fly basis set generation


 Basis Set    17 Label: C.6-31G**....acCD-aux-basis.
 On-the-fly basis set generation


 Basis Set    18 Label: O.6-31G**....acCD-aux-basis.
 On-the-fly basis set generation


 Basis Set    19 Label: O.6-31G**....acCD-aux-basis.
 On-the-fly basis set generation


 Basis Set    20 Label: H.6-31G**....acCD-aux-basis.
 On-the-fly basis set generation


 Basis Set    21 Label: C.6-31G**....acCD-aux-basis.
 On-the-fly basis set generation


 Basis Set    22 Label: C.6-31G**....acCD-aux-basis.
 On-the-fly basis set generation


 Basis Set    23 Label: H.6-31G**....acCD-aux-basis.
 On-the-fly basis set generation

  Weights used for alignment and distance                     
  mat. size =    15x    1
       14.0030740044299993
       12.0000000000000000
       14.0030740044299993
       12.0000000000000000
       12.0000000000000000
       12.0000000000000000
       15.9949146195700003
       15.9949146195700003
        1.0078250322300000
        1.0078250322300000
        1.0078250322300000
       12.0000000000000000
        1.0078250322300000
        1.0078250322300000
        1.0078250322300000


++    Symmetry information:
      ---------------------

                    Character Table for C1 

                             E  
                    a        1  x, y, xy, Rz, z, xz, Ry, yz, Rx, I
--


++    Basis set information:
      ----------------------


      Basis set label: N.6-31G**.........

      Electronic valence basis set:
      ------------------
      Associated Effective Charge   7.000000 au
      Associated Actual Charge      7.000000 au
      Nuclear Model: Point charge

      Shell  nPrim  nBasis  Cartesian Spherical Contaminant
         s      10       3        X                  
         p       4       2        X                  
         d       1       1        X                  

       Label   Cartesian Coordinates / Bohr

 N1                -2.2507362665       -1.7853221388       -0.1900151177


      Basis set label: C.6-31G**.........

      Electronic valence basis set:
      ------------------
      Associated Effective Charge   6.000000 au
      Associated Actual Charge      6.000000 au
      Nuclear Model: Point charge

      Shell  nPrim  nBasis  Cartesian Spherical Contaminant
         s      10       3        X                  
         p       4       2        X                  
         d       1       1        X                  

       Label   Cartesian Coordinates / Bohr

 C2                -2.3073524801        0.7754288385        0.1524197345


      Basis set label: N.6-31G**.........

      Electronic valence basis set:
      ------------------
      Associated Effective Charge   7.000000 au
      Associated Actual Charge      7.000000 au
      Nuclear Model: Point charge

      Shell  nPrim  nBasis  Cartesian Spherical Contaminant
         s      10       3        X                  
         p       4       2        X                  
         d       1       1        X                  

       Label   Cartesian Coordinates / Bohr

 N3                 0.0424732954        1.8632799177        0.1734012314


      Basis set label: C.6-31G**.........

      Electronic valence basis set:
      ------------------
      Associated Effective Charge   6.000000 au
      Associated Actual Charge      6.000000 au
      Nuclear Model: Point charge

      Shell  nPrim  nBasis  Cartesian Spherical Contaminant
         s      10       3        X                  
         p       4       2        X                  
         d       1       1        X                  

       Label   Cartesian Coordinates / Bohr

 C4                 2.3598568575        0.6730169264       -0.1077024838
 C5                 2.2268012222       -2.0808428959       -0.4666879732
 C6                -0.0500842052       -3.1435292672       -0.4873234990


      Basis set label: O.6-31G**.........

      Electronic valence basis set:
      ------------------
      Associated Effective Charge   8.000000 au
      Associated Actual Charge      8.000000 au
      Nuclear Model: Point charge

      Shell  nPrim  nBasis  Cartesian Spherical Contaminant
         s      10       3        X                  
         p       4       2        X                  
         d       1       1        X                  

       Label   Cartesian Coordinates / Bohr

 O7                -4.2211673405        1.9453289159        0.4081287999
 O8                 4.2758843037        1.8673771463       -0.0504873971


      Basis set label: H.6-31G**.........

      Electronic valence basis set:
      ------------------
      Associated Effective Charge   1.000000 au
      Associated Actual Charge      1.000000 au
      Nuclear Model: Point charge

      Shell  nPrim  nBasis  Cartesian Spherical Contaminant
         s       4       2        X                  
         p       1       1        X                  

       Label   Cartesian Coordinates / Bohr

 H9                -0.3108314315       -5.1399822478       -0.7391693594
 H10                0.0795978533        3.7312034028        0.4192583986
 H11               -3.9241250893       -2.6367878496       -0.2160844943


      Basis set label: C.6-31G**.........

      Electronic valence basis set:
      ------------------
      Associated Effective Charge   6.000000 au
      Associated Actual Charge      6.000000 au
      Nuclear Model: Point charge

      Shell  nPrim  nBasis  Cartesian Spherical Contaminant
         s      10       3        X                  
         p       4       2        X                  
         d       1       1        X                  

       Label   Cartesian Coordinates / Bohr

 C12                4.6656303203       -3.4980288491       -0.7851020064


      Basis set label: H.6-31G**.........

      Electronic valence basis set:
      ------------------
      Associated Effective Charge   1.000000 au
      Associated Actual Charge      1.000000 au
      Nuclear Model: Point charge

      Shell  nPrim  nBasis  Cartesian Spherical Contaminant
         s       4       2        X                  
         p       1       1        X                  

       Label   Cartesian Coordinates / Bohr

 H13                5.6986703279       -2.8097923330       -2.4150536978
 H14                5.8736595907       -3.2418455947        0.8496952264
 H15                4.3171775219       -5.5017764749       -1.0316516259
--


++    Molecular structure info:
      -------------------------

                    ************************************************ 
                    **** Cartesian Coordinates / Bohr, Angstrom **** 
                    ************************************************ 

     Center  Label                x              y              z                     x              y              z
        1      N1              -2.250736      -1.785322      -0.190015             -1.191038      -0.944752      -0.100552
        2      C2              -2.307352       0.775429       0.152420             -1.220998       0.410339       0.080657
        3      N3               0.042473       1.863280       0.173401              0.022476       0.986005       0.091760
        4      C4               2.359857       0.673017      -0.107702              1.248782       0.356145      -0.056994
        5      C5               2.226801      -2.080843      -0.466688              1.178372      -1.101135      -0.246961
        6      C6              -0.050084      -3.143529      -0.487323             -0.026503      -1.663484      -0.257880
        7      O7              -4.221167       1.945329       0.408129             -2.233746       1.029424       0.215972
        8      O8               4.275884       1.867377      -0.050487              2.262701       0.988173      -0.026717
        9      H9              -0.310831      -5.139982      -0.739169             -0.164485      -2.719961      -0.391152
       10      H10              0.079598       3.731203       0.419258              0.042121       1.974468       0.221862
       11      H11             -3.924125      -2.636788      -0.216084             -2.076558      -1.395328      -0.114347
       12      C12              4.665630      -3.498029      -0.785102              2.468945      -1.851077      -0.415458
       13      H13              5.698670      -2.809792      -2.415054              3.015606      -1.486878      -1.277991
       14      H14              5.873660      -3.241846       0.849695              3.108207      -1.715511       0.449639
       15      H15              4.317178      -5.501776      -1.031652              2.284552      -2.911415      -0.545927

                    *************************************** 
                    *    InterNuclear Distances / Bohr    * 
                    *************************************** 

               1 N1            2 C2            3 N3            4 C4            5 C5            6 C6    
    1 N1       0.000000
    2 C2       2.584166        0.000000
    3 N3       4.324717        2.589506        0.000000
    4 C4       5.225684        4.675574        2.620308        0.000000
    5 C5       4.495801        5.394454        4.553801        2.780345        0.000000
    6 C6       2.603073        4.567577        5.051065        4.529675        2.512755        0.000000
    7 O7       4.261236        2.257596        4.270885        6.722703        7.651906        6.640501
    8 O8       7.480538        6.676266        4.239329        2.258524        4.467707        6.634306
    9 H9       3.913891        6.306593        7.071300        6.428241        3.983988        2.029098
   10 H10      6.019446        3.808587        1.884400        3.850944        6.259015        6.935464
   11 H11      1.877739        3.793807        6.011340        7.103167        6.181082        3.916446
   12 C12      7.150078        8.231882        7.143944        4.813843        2.838607        4.738386
   13 H13      8.318257        9.140139        7.780120        5.348038        4.047391        6.072537
   14 H14      8.319151        9.140768        7.779615        5.346921        4.047267        6.073551
   15 H15      7.593278        9.202702        8.600541        6.543154        4.048659        4.993055

               7 O7            8 O8            9 H9           10 H10          11 H11          12 C12   
    7 O7       0.000000
    8 O8       8.509776        0.000000
    9 H9       8.173656        8.403293        0.000000
   10 H10      4.656829        4.615553        8.955017        0.000000
   11 H11      4.633969        9.357087        4.426679        7.548826        0.000000
   12 C12     10.489476        5.429470        5.240543        8.645460        8.651556        0.000000
   13 H13     11.357144        5.430599        6.659766        9.077000        9.872365        2.048801
   14 H14     11.358138        5.428386        6.661482        9.076334        9.874136        2.048787
   15 H15     11.420844        7.434300        4.651334       10.262073        8.763126        2.048710

              13 H13          14 H14          15 H15   
   13 H13      0.000000
   14 H14      3.297859        0.000000
   15 H15      3.327026        3.327069        0.000000

                    ******************************************* 
                    *    InterNuclear Distances / Angstrom    * 
                    ******************************************* 

               1 N1            2 C2            3 N3            4 C4            5 C5            6 C6    
    1 N1       0.000000
    2 C2       1.367482        0.000000
    3 N3       2.288542        1.370308        0.000000
    4 C4       2.765313        2.474207        1.386607        0.000000
    5 C5       2.379075        2.854622        2.409768        1.471295        0.000000
    6 C6       1.377487        2.417058        2.672909        2.397001        1.329692        0.000000
    7 O7       2.254949        1.194668        2.260055        3.557501        4.049214        3.514002
    8 O8       3.958530        3.532928        2.243356        1.195159        2.364209        3.510723
    9 H9       2.071142        3.337305        3.741971        3.401679        2.108236        1.073753
   10 H10      3.185353        2.015418        0.997181        2.037832        3.312128        3.670089
   11 H11      0.993657        2.007596        3.181064        3.758834        3.270888        2.072494
   12 C12      3.783658        4.356124        3.780413        2.547376        1.502126        2.507446
   13 H13      4.401832        4.836753        4.117062        2.830060        2.141787        3.213448
   14 H14      4.402305        4.837086        4.116795        2.829469        2.141721        3.213985
   15 H15      4.018190        4.869860        4.551210        3.462488        2.142458        2.642211

               7 O7            8 O8            9 H9           10 H10          11 H11          12 C12   
    7 O7       0.000000
    8 O8       4.503180        0.000000
    9 H9       4.325313        4.446831        0.000000
   10 H10      2.464288        2.442445        4.738791        0.000000
   11 H11      2.452191        4.951557        2.342498        3.994667        0.000000
   12 C12      5.550792        2.873152        2.773176        4.574980        4.578206        0.000000
   13 H13      6.009942        2.873749        3.524196        4.803341        5.224230        1.084179
   14 H14      6.010468        2.872578        3.525104        4.802989        5.225168        1.084171
   15 H15      6.043650        3.934062        2.461380        5.430455        4.637247        1.084130

              13 H13          14 H14          15 H15   
   13 H13      0.000000
   14 H14      1.745152        0.000000
   15 H15      1.760586        1.760609        0.000000

                    ************************************** 
                    *    Valence Bond Angles / Degree    * 
                    ************************************** 
                          Atom centers                 Phi
                      2 C2       1 N1       6 C6       123.42
                      2 C2       1 N1      11 H11      115.57
                      6 C6       1 N1      11 H11      121.01
                      1 N1       2 C2       3 N3       113.42
                      1 N1       2 C2       7 O7       123.17
                      3 N3       2 C2       7 O7       123.41
                      2 C2       3 N3       4 C4       127.65
                      2 C2       3 N3      10 H10      115.81
                      4 C4       3 N3      10 H10      116.54
                      3 N3       4 C4       5 C5       114.93
                      3 N3       4 C4       8 O8       120.49
                      5 C5       4 C4       8 O8       124.59
                      4 C4       5 C5       6 C6       117.60
                      4 C4       5 C5      12 C12      117.90
                      6 C6       5 C5      12 C12      124.50
                      1 N1       6 C6       5 C5       122.99
                      1 N1       6 C6       9 H9       114.77
                      5 C5       6 C6       9 H9       122.25
                      5 C5      12 C12     13 H13      110.78
                      5 C5      12 C12     14 H14      110.77
                      5 C5      12 C12     15 H15      110.83
                     13 H13     12 C12     14 H14      107.19
                     13 H13     12 C12     15 H15      108.58
                     14 H14     12 C12     15 H15      108.58

           ***************************************************************
           *              Valence Dihedral Angles / Degree               *
           ***************************************************************
                    Atom centers                       Phi1     Phi2     Theta 
           6 C6       1 N1       2 C2       7 O7        123.42   123.17   179.96
           2 C2       1 N1       6 C6       5 C5        123.42   122.99     0.03
           2 C2       1 N1       6 C6       9 H9        123.42   114.77  -179.97
           3 N3       2 C2       1 N1       6 C6        113.42   123.42    -0.05
           3 N3       2 C2       1 N1      11 H11       113.42   115.57  -179.97
           7 O7       2 C2       1 N1      11 H11       123.17   115.57     0.04
           1 N1       2 C2       3 N3       4 C4        113.42   127.65     0.05
           1 N1       2 C2       3 N3      10 H10       113.42   115.81  -179.99
           7 O7       2 C2       3 N3      10 H10       123.41   115.81    -0.00
           4 C4       3 N3       2 C2       7 O7        127.65   123.41  -179.96
           2 C2       3 N3       4 C4       5 C5        127.65   114.93    -0.03
           2 C2       3 N3       4 C4       8 O8        127.65   120.49   179.97
           5 C5       4 C4       3 N3      10 H10       114.93   116.54  -179.98
           8 O8       4 C4       3 N3      10 H10       120.49   116.54     0.02
           3 N3       4 C4       5 C5       6 C6        114.93   117.60     0.00
           3 N3       4 C4       5 C5      12 C12       114.93   117.90   179.98
           8 O8       4 C4       5 C5      12 C12       124.59   117.90    -0.02
           6 C6       5 C5       4 C4       8 O8        117.60   124.59  -180.00
           4 C4       5 C5       6 C6       9 H9        117.60   122.25   179.99
           4 C4       5 C5      12 C12     13 H13       117.90   110.78   -59.44
           4 C4       5 C5      12 C12     14 H14       117.90   110.77    59.37
           4 C4       5 C5      12 C12     15 H15       117.90   110.83   179.96
           6 C6       5 C5      12 C12     13 H13       124.50   110.78   120.54
           6 C6       5 C5      12 C12     14 H14       124.50   110.77  -120.65
           6 C6       5 C5      12 C12     15 H15       124.50   110.83    -0.06
           5 C5       6 C6       1 N1      11 H11       122.99   121.01   179.95
           9 H9       6 C6       1 N1      11 H11       114.77   121.01    -0.05
           1 N1       6 C6       5 C5       4 C4        122.99   117.60    -0.01
           1 N1       6 C6       5 C5      12 C12       122.99   124.50  -179.98
           9 H9       6 C6       5 C5      12 C12       122.25   124.50     0.01
--


++    Isotope specification:
      ----------------------

 Center
 Type   Z    A    mass (Da)
 --------------------------
    1   7   14    14.003074
    2   6   12    12.000000
    3   7   14    14.003074
    4   6   12    12.000000
    5   8   16    15.994915
    6   1    1     1.007825
    7   6   12    12.000000
    8   1    1     1.007825
--


++    Rigid rotor info:
      -----------------


                    Total mass (a) : 126.04293

                    Center of mass 
                          X          Y   
                       0.51186   -0.32475   -0.14283

                    Reference system based on center of mass
                    Coordinates and Masses of Atoms, in au and A
                          X          Y          Z        Mass
                      -2.76260   -1.46057   -0.04719   14.00307
                      -2.81922    1.10018    0.29525   12.00000
                      -0.46939    2.18803    0.31623   14.00307
                       1.84799    0.99777    0.03513   12.00000
                       1.71494   -1.75609   -0.32386   12.00000
                      -0.56195   -2.81878   -0.34450   12.00000
                      -4.73303    2.27008    0.55096   15.99491
                       3.76402    2.19213    0.09234   15.99491
                      -0.82270   -4.81523   -0.59634    1.00783
                      -0.43227    4.05596    0.56209    1.00783
                      -4.43599   -2.31203   -0.07326    1.00783
                       4.15377   -3.17327   -0.64227   12.00000
                       5.18681   -2.48504   -2.27223    1.00783
                       5.36179   -2.91709    0.99252    1.00783
                       3.80531   -5.17702   -0.88882    1.00783

                    The Moment of Inertia Tensor / au
                                     X          Y        Z     
                    X             0.1177E+07
                    Y             0.4087E+06 0.2172E+07
                    Z             0.1665E+06-0.1712E+06 0.3266E+07

                    The Principal Axes and Moments of Inertia (au)
                    Eigenvalues : 0.3298E+07 0.2307E+07 0.1010E+07
                                     X'         Y'       Z'    
                    Eigenvectors:
                    X             0.5235E-01 0.3518E+00 0.9346E+00
                    Y            -0.1316E+00 0.9301E+00-0.3428E+00
                    Z             0.9899E+00 0.1050E+00-0.9498E-01

                    The Rotational Constants
                            (cm-1)            (GHz)
                              0.033            0.998
                              0.048            1.426
                              0.109            3.256


                    *******************************************
                    *                                         *
                    * R I G I D - R O T O R   A N A L Y S I S *
                    *                                         *
                    *******************************************

                    j(Max):  5

                    Rotor Type: Linear Rotor
                    Asymmetry parameter: -0.621
                    Prolate = -1
                    Oblate  =  1


                    Rotational energies / cm-1

                    E(J= 0,kappa= 0) =        0.000

                    E(J= 1,kappa=-1) =        0.081
                    E(J= 1,kappa= 0) =        0.142
                    E(J= 1,kappa= 1) =        0.156

                    E(J= 2,kappa=-2) =        0.240
                    E(J= 2,kappa=-1) =        0.289
                    E(J= 2,kappa= 0) =        0.332
                    E(J= 2,kappa= 1) =        0.515
                    E(J= 2,kappa= 2) =        0.517

                    E(J= 3,kappa=-3) =        0.474
                    E(J= 3,kappa=-2) =        0.509
                    E(J= 3,kappa=-1) =        0.595
                    E(J= 3,kappa= 0) =        0.758
                    E(J= 3,kappa= 1) =        0.769
                    E(J= 3,kappa= 2) =        1.100
                    E(J= 3,kappa= 3) =        1.100

                    E(J= 4,kappa=-4) =        0.778
                    E(J= 4,kappa=-3) =        0.800
                    E(J= 4,kappa=-2) =        0.941
                    E(J= 4,kappa=-1) =        1.079
                    E(J= 4,kappa= 0) =        1.110
                    E(J= 4,kappa= 1) =        1.427
                    E(J= 4,kappa= 2) =        1.429
                    E(J= 4,kappa= 3) =        1.901
                    E(J= 4,kappa= 4) =        1.901

                    E(J= 5,kappa=-5) =        1.148
                    E(J= 5,kappa=-4) =        1.161
                    E(J= 5,kappa=-3) =        1.369
                    E(J= 5,kappa=-2) =        1.479
                    E(J= 5,kappa=-1) =        1.543
                    E(J= 5,kappa= 0) =        1.837
                    E(J= 5,kappa= 1) =        1.843
                    E(J= 5,kappa= 2) =        2.310
                    E(J= 5,kappa= 3) =        2.310
                    E(J= 5,kappa= 4) =        2.919
                    E(J= 5,kappa= 5) =        2.919
--


++    Primitive basis info:
      ---------------------


                    *****************************************************
                    ******** Primitive Basis Functions (Valence) ********
                    *****************************************************


 Basis set:N.6-31G**.........                                                              

                  Type         
                   s
           No.      Exponent    Contraction Coefficients
            1  0.417351146D+04   0.001835   0.000000   0.000000
            2  0.627457911D+03   0.013995   0.000000   0.000000
            3  0.142902093D+03   0.068587   0.000000   0.000000
            4  0.402343293D+02   0.232241   0.000000   0.000000
            5  0.128202129D+02   0.469070   0.000000   0.000000
            6  0.116263619D+02   0.000000  -0.114961   0.000000
            7  0.439043701D+01   0.360455   0.000000   0.000000
            8  0.271627981D+01   0.000000  -0.169117   0.000000
            9  0.772218397D+00   0.000000   1.145852   0.000000
           10  0.212031497D+00   0.000000   0.000000   1.000000

                  Type         
                   p
           No.      Exponent    Contraction Coefficients
           11  0.116263619D+02   0.067580   0.000000
           12  0.271627981D+01   0.323907   0.000000
           13  0.772218397D+00   0.740895   0.000000
           14  0.212031497D+00   0.000000   1.000000

                  Type         
                   d
           No.      Exponent    Contraction Coefficients
           15  0.800000000D+00   1.000000


 Basis set:C.6-31G**.........                                                              

                  Type         
                   s
           No.      Exponent    Contraction Coefficients
           16  0.304752488D+04   0.001835   0.000000   0.000000
           17  0.457369518D+03   0.014037   0.000000   0.000000
           18  0.103948685D+03   0.068843   0.000000   0.000000
           19  0.292101553D+02   0.232184   0.000000   0.000000
           20  0.928666296D+01   0.467941   0.000000   0.000000
           21  0.786827235D+01   0.000000  -0.119332   0.000000
           22  0.316392696D+01   0.362312   0.000000   0.000000
           23  0.188128854D+01   0.000000  -0.160854   0.000000
           24  0.544249258D+00   0.000000   1.143456   0.000000
           25  0.168714478D+00   0.000000   0.000000   1.000000

                  Type         
                   p
           No.      Exponent    Contraction Coefficients
           26  0.786827235D+01   0.068999   0.000000
           27  0.188128854D+01   0.316424   0.000000
           28  0.544249258D+00   0.744308   0.000000
           29  0.168714478D+00   0.000000   1.000000

                  Type         
                   d
           No.      Exponent    Contraction Coefficients
           30  0.800000000D+00   1.000000


 Basis set:N.6-31G**.........                                                              

                  Type         
                   s
           No.      Exponent    Contraction Coefficients
           31  0.417351146D+04   0.001835   0.000000   0.000000
           32  0.627457911D+03   0.013995   0.000000   0.000000
           33  0.142902093D+03   0.068587   0.000000   0.000000
           34  0.402343293D+02   0.232241   0.000000   0.000000
           35  0.128202129D+02   0.469070   0.000000   0.000000
           36  0.116263619D+02   0.000000  -0.114961   0.000000
           37  0.439043701D+01   0.360455   0.000000   0.000000
           38  0.271627981D+01   0.000000  -0.169117   0.000000
           39  0.772218397D+00   0.000000   1.145852   0.000000
           40  0.212031497D+00   0.000000   0.000000   1.000000

                  Type         
                   p
           No.      Exponent    Contraction Coefficients
           41  0.116263619D+02   0.067580   0.000000
           42  0.271627981D+01   0.323907   0.000000
           43  0.772218397D+00   0.740895   0.000000
           44  0.212031497D+00   0.000000   1.000000

                  Type         
                   d
           No.      Exponent    Contraction Coefficients
           45  0.800000000D+00   1.000000


 Basis set:C.6-31G**.........                                                              

                  Type         
                   s
           No.      Exponent    Contraction Coefficients
           46  0.304752488D+04   0.001835   0.000000   0.000000
           47  0.457369518D+03   0.014037   0.000000   0.000000
           48  0.103948685D+03   0.068843   0.000000   0.000000
           49  0.292101553D+02   0.232184   0.000000   0.000000
           50  0.928666296D+01   0.467941   0.000000   0.000000
           51  0.786827235D+01   0.000000  -0.119332   0.000000
           52  0.316392696D+01   0.362312   0.000000   0.000000
           53  0.188128854D+01   0.000000  -0.160854   0.000000
           54  0.544249258D+00   0.000000   1.143456   0.000000
           55  0.168714478D+00   0.000000   0.000000   1.000000

                  Type         
                   p
           No.      Exponent    Contraction Coefficients
           56  0.786827235D+01   0.068999   0.000000
           57  0.188128854D+01   0.316424   0.000000
           58  0.544249258D+00   0.744308   0.000000
           59  0.168714478D+00   0.000000   1.000000

                  Type         
                   d
           No.      Exponent    Contraction Coefficients
           60  0.800000000D+00   1.000000


 Basis set:O.6-31G**.........                                                              

                  Type         
                   s
           No.      Exponent    Contraction Coefficients
           91  0.548467166D+04   0.001831   0.000000   0.000000
           92  0.825234946D+03   0.013950   0.000000   0.000000
           93  0.188046958D+03   0.068445   0.000000   0.000000
           94  0.529645000D+02   0.232714   0.000000   0.000000
           95  0.168975704D+02   0.470193   0.000000   0.000000
           96  0.155396162D+02   0.000000  -0.110778   0.000000
           97  0.579963534D+01   0.358521   0.000000   0.000000
           98  0.359993359D+01   0.000000  -0.148026   0.000000
           99  0.101376175D+01   0.000000   1.130767   0.000000
          100  0.270005823D+00   0.000000   0.000000   1.000000

                  Type         
                   p
           No.      Exponent    Contraction Coefficients
          101  0.155396162D+02   0.070874   0.000000
          102  0.359993359D+01   0.339753   0.000000
          103  0.101376175D+01   0.727159   0.000000
          104  0.270005823D+00   0.000000   1.000000

                  Type         
                   d
           No.      Exponent    Contraction Coefficients
          105  0.800000000D+00   1.000000


 Basis set:H.6-31G**.........                                                              

                  Type         
                   s
           No.      Exponent    Contraction Coefficients
          121  0.187311370D+02   0.033495   0.000000
          122  0.282539437D+01   0.234727   0.000000
          123  0.640121692D+00   0.813757   0.000000
          124  0.161277759D+00   0.000000   1.000000

                  Type         
                   p
           No.      Exponent    Contraction Coefficients
          125  0.110000000D+01   1.000000


 Basis set:C.6-31G**.........                                                              

                  Type         
                   s
           No.      Exponent    Contraction Coefficients
          136  0.304752488D+04   0.001835   0.000000   0.000000
          137  0.457369518D+03   0.014037   0.000000   0.000000
          138  0.103948685D+03   0.068843   0.000000   0.000000
          139  0.292101553D+02   0.232184   0.000000   0.000000
          140  0.928666296D+01   0.467941   0.000000   0.000000
          141  0.786827235D+01   0.000000  -0.119332   0.000000
          142  0.316392696D+01   0.362312   0.000000   0.000000
          143  0.188128854D+01   0.000000  -0.160854   0.000000
          144  0.544249258D+00   0.000000   1.143456   0.000000
          145  0.168714478D+00   0.000000   0.000000   1.000000

                  Type         
                   p
           No.      Exponent    Contraction Coefficients
          146  0.786827235D+01   0.068999   0.000000
          147  0.188128854D+01   0.316424   0.000000
          148  0.544249258D+00   0.744308   0.000000
          149  0.168714478D+00   0.000000   1.000000

                  Type         
                   d
           No.      Exponent    Contraction Coefficients
          150  0.800000000D+00   1.000000


 Basis set:H.6-31G**.........                                                              

                  Type         
                   s
           No.      Exponent    Contraction Coefficients
          151  0.187311370D+02   0.033495   0.000000
          152  0.282539437D+01   0.234727   0.000000
          153  0.640121692D+00   0.813757   0.000000
          154  0.161277759D+00   0.000000   1.000000

                  Type         
                   p
           No.      Exponent    Contraction Coefficients
          155  0.110000000D+01   1.000000

  Number of primitives                                  294
  Number of basis functions                             165

--


++    SO/AO info:
      -----------

                    **************************************************
                    ********** Petite list Basis Functions ***********
                    **************************************************


           Basis functions generated by E  

 Basis Label        Type   Center
    1  N1            1s       1
    2  N1            2s       1
    3  N1            *s       1
    4  N1            2px      1
    5  N1            *px      1
    6  N1            2py      1
    7  N1            *py      1
    8  N1            2pz      1
    9  N1            *pz      1
   10  N1            *200     1
   11  N1            *110     1
   12  N1            *101     1
   13  N1            *020     1
   14  N1            *011     1
   15  N1            *002     1
   16  C2            1s       2
   17  C2            2s       2
   18  C2            *s       2
   19  C2            2px      2
   20  C2            *px      2
   21  C2            2py      2
   22  C2            *py      2
   23  C2            2pz      2
   24  C2            *pz      2
   25  C2            *200     2
   26  C2            *110     2
   27  C2            *101     2
   28  C2            *020     2
   29  C2            *011     2
   30  C2            *002     2
   31  N3            1s       3
   32  N3            2s       3
   33  N3            *s       3
   34  N3            2px      3
   35  N3            *px      3
   36  N3            2py      3
   37  N3            *py      3
   38  N3            2pz      3
   39  N3            *pz      3
   40  N3            *200     3
   41  N3            *110     3
   42  N3            *101     3
   43  N3            *020     3
   44  N3            *011     3
   45  N3            *002     3
   46  C4            1s       4
   47  C4            2s       4
   48  C4            *s       4
   49  C4            2px      4
   50  C4            *px      4
   51  C4            2py      4
   52  C4            *py      4
   53  C4            2pz      4
   54  C4            *pz      4
   55  C4            *200     4
   56  C4            *110     4
   57  C4            *101     4
   58  C4            *020     4
   59  C4            *011     4
   60  C4            *002     4
   61  C5            1s       5
   62  C5            2s       5
   63  C5            *s       5
   64  C5            2px      5
   65  C5            *px      5
   66  C5            2py      5
   67  C5            *py      5
   68  C5            2pz      5
   69  C5            *pz      5
   70  C5            *200     5
   71  C5            *110     5
   72  C5            *101     5
   73  C5            *020     5
   74  C5            *011     5
   75  C5            *002     5
   76  C6            1s       6
   77  C6            2s       6
   78  C6            *s       6
   79  C6            2px      6
   80  C6            *px      6
   81  C6            2py      6
   82  C6            *py      6
   83  C6            2pz      6
   84  C6            *pz      6
   85  C6            *200     6
   86  C6            *110     6
   87  C6            *101     6
   88  C6            *020     6
   89  C6            *011     6
   90  C6            *002     6
   91  O7            1s       7
   92  O7            2s       7
   93  O7            *s       7
   94  O7            2px      7
   95  O7            *px      7
   96  O7            2py      7
   97  O7            *py      7
   98  O7            2pz      7
   99  O7            *pz      7
  100  O7            *200     7
  101  O7            *110     7
  102  O7            *101     7
  103  O7            *020     7
  104  O7            *011     7
  105  O7            *002     7
  106  O8            1s       8
  107  O8            2s       8
  108  O8            *s       8
  109  O8            2px      8
  110  O8            *px      8
  111  O8            2py      8
  112  O8            *py      8
  113  O8            2pz      8
  114  O8            *pz      8
  115  O8            *200     8
  116  O8            *110     8
  117  O8            *101     8
  118  O8            *020     8
  119  O8            *011     8
  120  O8            *002     8
  121  H9            1s       9
  122  H9            *s       9
  123  H9            *px      9
  124  H9            *py      9
  125  H9            *pz      9
  126  H10           1s      10
  127  H10           *s      10
  128  H10           *px     10
  129  H10           *py     10
  130  H10           *pz     10
  131  H11           1s      11
  132  H11           *s      11
  133  H11           *px     11
  134  H11           *py     11
  135  H11           *pz     11
  136  C12           1s      12
  137  C12           2s      12
  138  C12           *s      12
  139  C12           2px     12
  140  C12           *px     12
  141  C12           2py     12
  142  C12           *py     12
  143  C12           2pz     12
  144  C12           *pz     12
  145  C12           *200    12
  146  C12           *110    12
  147  C12           *101    12
  148  C12           *020    12
  149  C12           *011    12
  150  C12           *002    12
  151  H13           1s      13
  152  H13           *s      13
  153  H13           *px     13
  154  H13           *py     13
  155  H13           *pz     13
  156  H14           1s      14
  157  H14           *s      14
  158  H14           *px     14
  159  H14           *py     14
  160  H14           *pz     14
  161  H15           1s      15
  162  H15           *s      15
  163  H15           *px     15
  164  H15           *py     15
  165  H15           *pz     15

      Basis set specifications :
      Symmetry species        a  
      Basis functions         165
--


            Nuclear Potential Energy            443.14494115 au

--- Stop Module: gateway at Thu Mar 30 15:56:25 2023 /rc=_RC_ALL_IS_WELL_ ---
*** files: caspt2_2.RICDLib xmldump
    saved to directory /home/marlenne/thymine/Thymine/MOLCAS/3.Ground_State/1.GS_non-planar/CASPT2

--- Start Module: seward at Thu Mar 30 15:56:26 2023 ---

()()()()()()()()()()()()()()()()()()()()()()()()()()()()()()()()()()()()()()()()()()()()()()()()()()

                                              &SEWARD

                                   only a single process is used
                       available to each process: 4.0 GB of memory, 1 thread?
                                             pid: 8086
()()()()()()()()()()()()()()()()()()()()()()()()()()()()()()()()()()()()()()()()()()()()()()()()()()


  Weights used for alignment and distance                     
  mat. size =    15x    1
       14.0030740044299993
       12.0000000000000000
       14.0030740044299993
       12.0000000000000000
       12.0000000000000000
       12.0000000000000000
       15.9949146195700003
       15.9949146195700003
        1.0078250322300000
        1.0078250322300000
        1.0078250322300000
       12.0000000000000000
        1.0078250322300000
        1.0078250322300000
        1.0078250322300000

               SEWARD will generate:
                  Multipole Moment integrals up to order  2
                  Kinetic Energy integrals
                  Nuclear Attraction integrals (point charge)
                  One-Electron Hamiltonian integrals
                  Velocity integrals
                  Orbital angular momentum around ( 0.5119 -0.3248 -0.1428 )
                  Velocity quadrupole around ( 0.5119 -0.3248 -0.1428 )
                  RI decomposed two-electron repulsion integrals stored Cholesky style
                   - acCD auxiliary basis
                   - CD Threshold:   0.10E-03

                   Integrals are discarded if absolute value <: 0.10E-13
                   Integral cutoff threshold is set to       <: 0.10E-15

++    SO/AO info:
      -----------

                    **************************************************
                    ********** Petite list Basis Functions ***********
                    **************************************************


           Basis functions generated by E  

 Basis Label        Type   Center
    1  N1            1s       1
    2  N1            2s       1
    3  N1            *s       1
    4  N1            2px      1
    5  N1            *px      1
    6  N1            2py      1
    7  N1            *py      1
    8  N1            2pz      1
    9  N1            *pz      1
   10  N1            *200     1
   11  N1            *110     1
   12  N1            *101     1
   13  N1            *020     1
   14  N1            *011     1
   15  N1            *002     1
   16  C2            1s       2
   17  C2            2s       2
   18  C2            *s       2
   19  C2            2px      2
   20  C2            *px      2
   21  C2            2py      2
   22  C2            *py      2
   23  C2            2pz      2
   24  C2            *pz      2
   25  C2            *200     2
   26  C2            *110     2
   27  C2            *101     2
   28  C2            *020     2
   29  C2            *011     2
   30  C2            *002     2
   31  N3            1s       3
   32  N3            2s       3
   33  N3            *s       3
   34  N3            2px      3
   35  N3            *px      3
   36  N3            2py      3
   37  N3            *py      3
   38  N3            2pz      3
   39  N3            *pz      3
   40  N3            *200     3
   41  N3            *110     3
   42  N3            *101     3
   43  N3            *020     3
   44  N3            *011     3
   45  N3            *002     3
   46  C4            1s       4
   47  C4            2s       4
   48  C4            *s       4
   49  C4            2px      4
   50  C4            *px      4
   51  C4            2py      4
   52  C4            *py      4
   53  C4            2pz      4
   54  C4            *pz      4
   55  C4            *200     4
   56  C4            *110     4
   57  C4            *101     4
   58  C4            *020     4
   59  C4            *011     4
   60  C4            *002     4
   61  C5            1s       5
   62  C5            2s       5
   63  C5            *s       5
   64  C5            2px      5
   65  C5            *px      5
   66  C5            2py      5
   67  C5            *py      5
   68  C5            2pz      5
   69  C5            *pz      5
   70  C5            *200     5
   71  C5            *110     5
   72  C5            *101     5
   73  C5            *020     5
   74  C5            *011     5
   75  C5            *002     5
   76  C6            1s       6
   77  C6            2s       6
   78  C6            *s       6
   79  C6            2px      6
   80  C6            *px      6
   81  C6            2py      6
   82  C6            *py      6
   83  C6            2pz      6
   84  C6            *pz      6
   85  C6            *200     6
   86  C6            *110     6
   87  C6            *101     6
   88  C6            *020     6
   89  C6            *011     6
   90  C6            *002     6
   91  O7            1s       7
   92  O7            2s       7
   93  O7            *s       7
   94  O7            2px      7
   95  O7            *px      7
   96  O7            2py      7
   97  O7            *py      7
   98  O7            2pz      7
   99  O7            *pz      7
  100  O7            *200     7
  101  O7            *110     7
  102  O7            *101     7
  103  O7            *020     7
  104  O7            *011     7
  105  O7            *002     7
  106  O8            1s       8
  107  O8            2s       8
  108  O8            *s       8
  109  O8            2px      8
  110  O8            *px      8
  111  O8            2py      8
  112  O8            *py      8
  113  O8            2pz      8
  114  O8            *pz      8
  115  O8            *200     8
  116  O8            *110     8
  117  O8            *101     8
  118  O8            *020     8
  119  O8            *011     8
  120  O8            *002     8
  121  H9            1s       9
  122  H9            *s       9
  123  H9            *px      9
  124  H9            *py      9
  125  H9            *pz      9
  126  H10           1s      10
  127  H10           *s      10
  128  H10           *px     10
  129  H10           *py     10
  130  H10           *pz     10
  131  H11           1s      11
  132  H11           *s      11
  133  H11           *px     11
  134  H11           *py     11
  135  H11           *pz     11
  136  C12           1s      12
  137  C12           2s      12
  138  C12           *s      12
  139  C12           2px     12
  140  C12           *px     12
  141  C12           2py     12
  142  C12           *py     12
  143  C12           2pz     12
  144  C12           *pz     12
  145  C12           *200    12
  146  C12           *110    12
  147  C12           *101    12
  148  C12           *020    12
  149  C12           *011    12
  150  C12           *002    12
  151  H13           1s      13
  152  H13           *s      13
  153  H13           *px     13
  154  H13           *py     13
  155  H13           *pz     13
  156  H14           1s      14
  157  H14           *s      14
  158  H14           *px     14
  159  H14           *py     14
  160  H14           *pz     14
  161  H15           1s      15
  162  H15           *s      15
  163  H15           *px     15
  164  H15           *py     15
  165  H15           *pz     15

      Basis set specifications :
      Symmetry species        a  
      Basis functions         165
--


            Nuclear Potential Energy            443.14494115 au


      Basis set specifications :
      Symmetry species         a  
      Basis functions          165


Seward processing 2-center and 3-center ERIs

 2-center integrals:
      CPU time :    0.17 sec.
      Wall time:    0.19 sec.
 3-center integrals:
      CPU time :    1.24 sec.
      Wall time:    1.26 sec.
 Block-transpose:
      CPU time :    0.03 sec.
      Wall time:    0.07 sec.
 Diagonal vector:
      CPU time :    0.04 sec.
      Wall time:    0.04 sec.
      RI vectors               720



      Input file to MOLDEN was generated!

++ I/O STATISTICS
 
  I. General I/O information
  - - - - - - - - - - - - - - - - - - - - - - - - - - - - - - - - - - - - - - - - - - -
  Unit  Name          Flsize      Write/Read            MBytes           Write/Read
                      (MBytes)       Calls              In/Out           Time, sec.
  - - - - - - - - - - - - - - - - - - - - - - - - - - - - - - - - - - - - - - - - - - -
   1  RUNFILE           0.70 .    1386/    7892 .     10.2/     57.9 .       0/       0
   2  NQGRID            0.00 .       4/       0 .      0.0/      0.0 .       0/       0
   3  ONEINT            4.40 .      62/     110 .     47.6/     17.0 .       0/       0
   4  AVEC00            0.00 .     721/    1441 .      5.9/     11.9 .       0/       0
   5  ZMAT00            0.00 .       1/       0 .      4.0/      0.0 .       0/       0
   6  AMAT00            1.98 .       2/       1 .      4.0/      2.0 .       0/       0
   7  QMAT00            0.00 .       1/       1 .      2.0/      2.0 .       0/       0
   8  QVEC00            3.96 .     720/       1 .      4.0/      4.0 .       0/       0
   9  RVEC00           74.59 .     770/     770 .     74.6/     74.6 .       0/       0
  10  CHRED             0.22 .       4/       0 .      0.2/      0.0 .       0/       0
  11  CHVEC1           74.59 .       1/       0 .     74.6/      0.0 .       0/       0
  12  CHORST            0.03 .      12/       0 .      0.0/      0.0 .       0/       0
  13  CHOMAP            0.01 .       1/       0 .      0.0/      0.0 .       0/       0
  14  CHODIAG           0.10 .       1/       0 .      0.1/      0.0 .       0/       0
  - - - - - - - - - - - - - - - - - - - - - - - - - - - - - - - - - - - - - - - - - - -
   *  TOTAL           160.56 .    3686/   10216 .    227.1/    169.2 .       0/       0
  - - - - - - - - - - - - - - - - - - - - - - - - - - - - - - - - - - - - - - - - - - -
 
  II. I/O Access Patterns
  - - - - - - - - - - - - - - - - - - - -
  Unit  Name               % of random
                         Write/Read calls
  - - - - - - - - - - - - - - - - - - - -
   1  RUNFILE             28.6/   9.9
   2  NQGRID              25.0/   0.0
   3  ONEINT              95.2/  10.9
   4  AVEC00              99.9/ 100.0
   5  ZMAT00               0.0/   0.0
   6  AMAT00              50.0/ 100.0
   7  QMAT00               0.0/ 100.0
   8  QVEC00               0.0/ 100.0
   9  RVEC00               0.0/   0.1
  10  CHRED                0.0/   0.0
  11  CHVEC1               0.0/   0.0
  12  CHORST               0.0/   0.0
  13  CHOMAP               0.0/   0.0
  14  CHODIAG              0.0/   0.0
  - - - - - - - - - - - - - - - - - - - -
--
--- Stop Module: seward at Thu Mar 30 15:56:28 2023 /rc=_RC_ALL_IS_WELL_ ---
*** files: caspt2_2.GssOrb caspt2_2.guessorb.molden xmldump
    saved to directory /home/marlenne/thymine/Thymine/MOLCAS/3.Ground_State/1.GS_non-planar/CASPT2
--- Module seward spent 2 seconds ---

>>> COPY /home/marlenne/thymine/Thymine/MOLCAS/3.Ground_State/1.GS_non-planar/CASPT2/caspt2.RasOrb INPORB

--- Start Module: rasscf at Thu Mar 30 15:56:29 2023 ---

()()()()()()()()()()()()()()()()()()()()()()()()()()()()()()()()()()()()()()()()()()()()()()()()()()

                                              &RASSCF

                                   only a single process is used
                       available to each process: 4.0 GB of memory, 1 thread?
                                             pid: 8089
()()()()()()()()()()()()()()()()()()()()()()()()()()()()()()()()()()()()()()()()()()()()()()()()()()

  Orbital specification was read from input.

      Header of the ONEINT file:
      --------------------------
      
      Integrals generated by Gateway/Seward, Thu Mar 30 15:56:26 2023


      OrdInt status: non-squared


      Cartesian coordinates in Angstrom:
      -----------------------------------------------------
      No.  Label        X            Y            Z        
      -----------------------------------------------------
       1   N1        -1.19103834  -0.94475179  -0.10055167
       2   C2        -1.22099835   0.41033927   0.08065705
       3   N3         0.02247590   0.98600527   0.09175998
       4   C4         1.24878247   0.35614522  -0.05699370
       5   C5         1.17837246  -1.10113464  -0.24696064
       6   C6        -0.02650342  -1.66348405  -0.25788049
       7   O7        -2.23374556   1.02942373   0.21597246
       8   O8         2.26270053   0.98817343  -0.02671678
       9   H9        -0.16448491  -2.71996147  -0.39115158
      10   H10        0.04212137   1.97446781   0.22186199
      11   H11       -2.07655757  -1.39532804  -0.11434699
      12   C12        2.46894524  -1.85107715  -0.41545809
      13   H13        3.01560647  -1.48687807  -1.27799138
      14   H14        3.10820680  -1.71551081   0.44963935
      15   H15        2.28455196  -2.91141473  -0.54592653
      -----------------------------------------------------
      Nuclear repulsion energy =  443.14494115

++    Wave function specifications:
      -----------------------------

      Number of closed shell electrons          52
      Number of electrons in active shells      14
      Max number of holes in RAS1 space          0
      Max nr of electrons in RAS3 space          0
      Number of inactive orbitals               26
      Number of active orbitals                 10
      Number of secondary orbitals             129
      Spin quantum number                      0.0
      State symmetry                             1
--

++    Orbital specifications:
      -----------------------

      Symmetry species                           1
                                                 a
      Frozen orbitals                            0
      Inactive orbitals                         26
      Active orbitals                           10
      RAS1 orbitals                              0
      RAS2 orbitals                             10
      RAS3 orbitals                              0
      Secondary orbitals                       129
      Deleted orbitals                           0
      Number of basis functions                165
--

++    CI expansion specifications:
      ----------------------------

      Number of CSFs                          4950
      Number of determinants                  7260
      Number of root(s) required                 5
      Root chosen for geometry opt.              5
      CI roots used                              1     2     3     4     5
      weights                                0.200 0.200 0.200 0.200 0.200
      highest root included in the CI            5
      max. size of the explicit Hamiltonian    200
--

++    Optimization specifications:
      ----------------------------

      RASSCF algorithm: LK RI/DF
      Maximum number of macro iterations       200
      Maximum number of SX iterations          100
      Threshold for RASSCF energy            0.100E-05
      Threshold for max MO rotation          0.100E-01
      Threshold for max BLB element          0.100E-01
      Level shift parameter                  0.800E+00
      Make Quasi-Newton update
--

      The MO-coefficients are taken from the file:
      INPORB                                                                                                                                                                                                                                                          
      Title: RASSCF average (pseudo-natural) orbitals                                      

      Total molecular charge    0.00

      Molecular orbitals exchanged:
        In symmetry  1 :  25  28
        In symmetry  1 :  36  40


      ************************************************************************************************************************
      *                                                                                                                      *
      *                                            Wave function control section                                             *
      *                                                                                                                      *
      ************************************************************************************************************************


                                         RASSCF iterations: Energy and convergence statistics
                                         ----------------------------------------------------

      Iter CI   SX   CI       RASSCF       Energy    max ROT     max BLB   max BLB  Level Ln srch  Step   QN   Walltime
          iter iter root      energy       change     param      element    value   shift minimum  type update hh:mm:ss
 Nr of preliminary CI iterations:   6
        1   1   15    0  -451.35707828    0.00E+00  -0.38E+00*  30  40 1  0.29E-01*  0.58   0.00    SX    NO    0:00:03
        2   7   29    0  -451.37314071   -0.16E-01* -0.20E+00*  30  40 1  0.18E-01*  0.58   0.00    SX    NO    0:00:01
        3   5   14    0  -451.38035292   -0.72E-02* -0.11E+00*  36  43 1  0.11E-01*  0.58   0.00    SX    NO    0:00:01
        4   6   13    0  -451.38350964   -0.32E-02*  0.61E-01*  36  43 1  0.76E-02   0.58   0.00    SX    NO    0:00:01
        5   4   11    0  -451.38473378   -0.12E-02*  0.60E-01*  36  43 1  0.49E-02   0.58   2.17    LS   YES    0:00:01
        6   6   10    0  -451.38539014   -0.66E-03*  0.29E-01*  36  43 1  0.20E-02   0.58   1.53    LS   YES    0:00:01
        7   4   10    0  -451.38550265   -0.11E-03* -0.13E-01*  34  43 1  0.25E-02   0.58   1.24    QN   YES    0:00:01
        8   6    9    0  -451.38559872   -0.96E-04* -0.97E-02   34  43 1  0.18E-02   0.58   1.80    LS   YES    0:00:01
        9   5    9    0  -451.38563194   -0.33E-04* -0.67E-02   34  43 1  0.12E-02   0.58   1.34    QN   YES    0:00:01
       10   5    8    0  -451.38565046   -0.19E-04*  0.24E-02   34  43 1  0.36E-03   0.58   1.32    QN   YES    0:00:01
       11   4    8    0  -451.38565377   -0.33E-05* -0.82E-03   23  35 1 -0.20E-03   0.58   1.32    QN   YES    0:00:01
       12   6    7    0  -451.38565480   -0.10E-05* -0.72E-03   23  35 1 -0.90E-04   0.58   1.42    QN   YES    0:00:01
       13   4    7    0  -451.38565516   -0.36E-06  -0.34E-03   34  43 1 -0.63E-04   0.58   1.30    QN   YES    0:00:01
      Convergence after 13 iterations
       14   3    7    0  -451.38565526   -0.98E-07  -0.34E-03   32  43 1  0.31E-04   0.58   1.30    QN   YES    0:00:01

      ************************************************************************************************************************
                                                      Wave function printout:
                       occupation of active orbitals, and spin coupling of open shells (u,d: Spin up or down)
      ************************************************************************************************************************

      Note: transformation to natural orbitals
      has been made, which may change the order of the CSFs.

      printout of CI-coefficients larger than  0.05 for root  1
      energy=    -451.585071
      conf/sym  1111111111     Coeff  Weight
             1  2222222000   0.93068 0.86617
             2  222222ud00   0.16007 0.02562
             4  2222220200  -0.09155 0.00838
             7  222222u0d0   0.10390 0.01080
             8  22222u20d0  -0.05522 0.00305
            10  22222udud0  -0.06410 0.00411
            17  2222202020  -0.06500 0.00422
            24  22222udu0d  -0.06623 0.00439
           201  22u2222d00  -0.07022 0.00493
           214  22u22d2020   0.05031 0.00253
           222  22u222du0d  -0.07815 0.00611
           351  u222222d00  -0.05945 0.00353
           880  2202222020  -0.05297 0.00281

      printout of CI-coefficients larger than  0.05 for root  2
      energy=    -451.384405
      conf/sym  1111111111     Coeff  Weight
            51  2222u22d00   0.67802 0.45971
            52  2222u2d200  -0.11645 0.01356
            54  2222u220d0   0.24676 0.06089
            56  2222ud2ud0  -0.05359 0.00287
            57  2222u2udd0   0.05299 0.00281
            71  2222u2200d   0.12330 0.01520
            73  2222ud2u0d  -0.05119 0.00262
            74  2222u2ud0d   0.08544 0.00730
           126  222u222d00  -0.51508 0.26531
           127  222u22d200   0.12123 0.01470
           129  222u2220d0  -0.20590 0.04240
           131  222u2d2ud0   0.07176 0.00515
           133  222u2u2dd0  -0.06827 0.00466
           146  222u22200d  -0.11860 0.01407
           149  222u22ud0d  -0.08106 0.00657
           536  22u2d22u0d  -0.06078 0.00369
           736  22ud222u0d   0.05268 0.00278

      printout of CI-coefficients larger than  0.05 for root  3
      energy=    -451.329027
      conf/sym  1111111111     Coeff  Weight
             1  2222222000   0.12982 0.01685
             2  222222ud00  -0.77508 0.60076
             3  22222u2d00   0.41296 0.17053
             4  2222220200  -0.06779 0.00460
             5  22222ud200   0.09474 0.00898
             7  222222u0d0   0.05172 0.00267
             8  22222u20d0   0.13864 0.01922
             9  2222220ud0  -0.10567 0.01117
            11  2222202ud0   0.14459 0.02091
            19  222220ud20   0.05986 0.00358
            21  222222u00d   0.07527 0.00567
            23  2222220u0d  -0.06222 0.00387
            24  22222udu0d   0.05955 0.00355
            29  22222200ud  -0.05181 0.00268
           201  22u2222d00  -0.05409 0.00293
           203  22u22d2200   0.05212 0.00272
           204  22u22220d0   0.08761 0.00768
           206  22u22d2ud0  -0.06349 0.00403
           207  22u222udd0  -0.05165 0.00267
           208  22u22u2dd0   0.06785 0.00460
           222  22u222du0d   0.07247 0.00525
           276  2u22222d00   0.05447 0.00297
           351  u222222d00  -0.09501 0.00903
           354  u2222220d0   0.11137 0.01240
           372  u22222du0d   0.05995 0.00359

      printout of CI-coefficients larger than  0.05 for root  4
      energy=    -451.327450
      conf/sym  1111111111     Coeff  Weight
            51  2222u22d00  -0.27781 0.07718
            54  2222u220d0   0.65319 0.42666
            55  2222u2dud0   0.09307 0.00866
            56  2222ud2ud0  -0.06098 0.00372
            57  2222u2udd0   0.05426 0.00294
            59  2222u202d0  -0.06361 0.00405
            64  2222ud2020   0.06099 0.00372
            71  2222u2200d  -0.06867 0.00472
           126  222u222d00  -0.25146 0.06323
           127  222u22d200  -0.05547 0.00308
           129  222u2220d0   0.50800 0.25806
           130  222u22dud0   0.09268 0.00859
           131  222u2d2ud0  -0.05098 0.00260
           132  222u22udd0   0.08737 0.00763
           134  222u2202d0  -0.05530 0.00306
           139  222u2d2020   0.09155 0.00838
           146  222u22200d  -0.12646 0.01599
           530  22u2d22020  -0.09029 0.00815
           539  22u2d220ud   0.05058 0.00256
           580  2u22d22020  -0.05064 0.00256
           730  22ud222020  -0.08767 0.00769

      printout of CI-coefficients larger than  0.05 for root  5
      energy=    -451.302324
      conf/sym  1111111111     Coeff  Weight
             1  2222222000  -0.07201 0.00519
             2  222222ud00   0.39807 0.15846
             3  22222u2d00   0.73569 0.54123
             4  2222220200  -0.23976 0.05749
             5  22222ud200  -0.07300 0.00533
             6  2222202200   0.05757 0.00331
             7  222222u0d0  -0.12976 0.01684
            10  22222udud0  -0.13383 0.01791
            11  2222202ud0   0.05007 0.00251
            18  22222u0d20   0.05302 0.00281
            21  222222u00d  -0.11673 0.01363
            22  22222u200d  -0.12726 0.01620
            26  22222uud0d   0.07600 0.00578
            29  22222200ud   0.05203 0.00271
            30  22222ud0ud   0.09618 0.00925
            41  2222220002   0.06952 0.00483
           203  22u22d2200   0.12648 0.01600
           208  22u22u2dd0   0.08120 0.00659
           224  22u222ud0d   0.05925 0.00351
           351  u222222d00   0.07005 0.00491
           352  u22222d200   0.13528 0.01830
           353  u2222d2200   0.07292 0.00532
           358  u2222u2dd0  -0.05551 0.00308
           882  22022u2d20  -0.05128 0.00263

      Natural orbitals and occupation numbers for root  1
      sym 1:   1.992537   1.995232   1.959475   1.999859   1.999743   1.948610   1.926116   0.081339   0.057733   0.039355


      Natural orbitals and occupation numbers for root  2
      sym 1:   1.997933   1.995275   1.930214   1.996502   1.003370   1.960517   1.992890   1.001836   0.077727   0.043736


      Natural orbitals and occupation numbers for root  3
      sym 1:   1.942206   1.987643   1.966283   1.999816   1.999757   1.892153   1.084315   0.936227   0.141221   0.050378


      Natural orbitals and occupation numbers for root  4
      sym 1:   1.991406   1.994576   1.953425   1.991088   1.008706   1.997700   1.927722   0.085994   1.000113   0.049270


      Natural orbitals and occupation numbers for root  5
      sym 1:   1.960403   1.989157   1.949593   1.999829   1.999595   1.153055   1.844864   0.912008   0.126045   0.065452


      ************************************************************************************************************************
      *                                                                                                                      *
      *                                                    Final results                                                     *
      *                                                                                                                      *
      ************************************************************************************************************************


++    Wave function specifications:
      -----------------------------

      Number of closed shell electrons          52
      Number of electrons in active shells      14
      Max number of holes in RAS1 space          0
      Max nr of electrons in RAS3 space          0
      Number of inactive orbitals               26
      Number of active orbitals                 10
      Number of secondary orbitals             129
      Spin quantum number                      0.0
      State symmetry                             1
--

++    Orbital specifications:
      -----------------------

      Symmetry species                           1
                                                 a
      Frozen orbitals                            0
      Inactive orbitals                         26
      Active orbitals                           10
      RAS1 orbitals                              0
      RAS2 orbitals                             10
      RAS3 orbitals                              0
      Secondary orbitals                       129
      Deleted orbitals                           0
      Number of basis functions                165
--

++    CI expansion specifications:
      ----------------------------

      Number of CSFs                          4950
      Number of determinants                  7260
      Number of root(s) required                 5
      CI roots used                              1     2     3     4     5
      weights                                0.200 0.200 0.200 0.200 0.200
      highest root included in the CI            5
      Root passed to geometry opt.               5
--

++    Final optimization conditions:
      ------------------------------

      Average CI energy                            -451.38565526
      RASSCF energy for state  5                   -451.30232409
      Super-CI energy                                -0.00000005
      RASSCF energy change                            0.00000000
      Max change in MO coefficients              -0.276E-03
      Max non-diagonal density matrix element    -0.338E-03
      Maximum BLB matrix element                  0.313E-04
      (orbital pair  32,  43 in symmetry   1)
      Norm of electronic gradient            0.169E+00
--


      Final state energy(ies):
      ------------------------

::    RASSCF root number  1 Total energy:   -451.58507072
::    RASSCF root number  2 Total energy:   -451.38440483
::    RASSCF root number  3 Total energy:   -451.32902705
::    RASSCF root number  4 Total energy:   -451.32744962
::    RASSCF root number  5 Total energy:   -451.30232409

++    Molecular orbitals:
      -------------------

      Pseudonatural active orbitals and approximate occupation numbers




      Molecular orbitals for symmetry species 1: a  


      Orbital                 1         2         3         4         5         6         7         8         9        10
      Energy           -20.5979  -20.5769  -15.6341  -15.6232  -11.3730  -11.3235  -11.2655  -11.2227  -11.2202   -1.4601
      Occ. No.           2.0000    2.0000    2.0000    2.0000    2.0000    2.0000    2.0000    2.0000    2.0000    2.0000

     1 N1     1s        -0.0000   -0.0000    0.9950    0.0010   -0.0003    0.0000   -0.0002    0.0001   -0.0000   -0.0506
     2 N1     2s        -0.0001   -0.0000    0.0255    0.0000    0.0003    0.0002    0.0005    0.0001   -0.0002    0.1026
     3 N1     *s         0.0003    0.0002   -0.0050   -0.0007   -0.0004   -0.0022   -0.0012   -0.0021    0.0016    0.1094
     4 N1     2px        0.0000    0.0000    0.0000    0.0000    0.0000   -0.0000    0.0002    0.0000   -0.0000   -0.0030
     5 N1     *px        0.0001    0.0000   -0.0012   -0.0008   -0.0002    0.0001   -0.0031   -0.0009    0.0007    0.0088
     6 N1     2py       -0.0000    0.0000    0.0001   -0.0001    0.0001    0.0000   -0.0001   -0.0000   -0.0000    0.0378
     7 N1     *py        0.0002    0.0001   -0.0011    0.0001   -0.0012   -0.0017    0.0015   -0.0003    0.0000    0.0255
     8 N1     2pz       -0.0000    0.0000    0.0000   -0.0000    0.0000    0.0000   -0.0000   -0.0000    0.0000    0.0052
     9 N1     *pz        0.0000    0.0000   -0.0001    0.0001   -0.0002   -0.0002    0.0004    0.0000   -0.0000    0.0029
    10 N1     *200      -0.0000   -0.0000   -0.0019    0.0000   -0.0002    0.0000   -0.0004    0.0002   -0.0001   -0.0002
    11 N1     *110       0.0001    0.0000    0.0001   -0.0000   -0.0000   -0.0001    0.0003    0.0000   -0.0000   -0.0029
    12 N1     *101       0.0000    0.0000    0.0000   -0.0000    0.0000   -0.0000    0.0001   -0.0000   -0.0000   -0.0006
    13 N1     *020       0.0000   -0.0000   -0.0019    0.0000   -0.0003    0.0000   -0.0002    0.0001   -0.0000    0.0051
    14 N1     *011       0.0000   -0.0000   -0.0000    0.0000   -0.0001   -0.0000   -0.0001    0.0000    0.0000    0.0021
    15 N1     *002      -0.0000    0.0000   -0.0019   -0.0000    0.0001    0.0000    0.0001    0.0000   -0.0001   -0.0020
    16 C2     1s        -0.0000    0.0000    0.0000    0.0000    0.9957    0.0002    0.0001    0.0000   -0.0000   -0.1273
    17 C2     2s         0.0004    0.0001    0.0002    0.0002    0.0275   -0.0005   -0.0004   -0.0000   -0.0000    0.2444
    18 C2     *s        -0.0010    0.0000    0.0018    0.0017   -0.0016   -0.0006    0.0008    0.0008   -0.0001    0.0110
    19 C2     2px        0.0001    0.0000    0.0000    0.0002    0.0001   -0.0002    0.0000    0.0000   -0.0000   -0.1067
    20 C2     *px        0.0006   -0.0002    0.0007    0.0022   -0.0037    0.0015    0.0047    0.0011   -0.0003    0.0165
    21 C2     2py       -0.0001    0.0000   -0.0003    0.0001    0.0000   -0.0001    0.0000   -0.0000    0.0000    0.0662
    22 C2     *py       -0.0003    0.0003   -0.0021    0.0003    0.0024   -0.0042   -0.0000   -0.0006    0.0005   -0.0087
    23 C2     2pz       -0.0000    0.0000   -0.0000   -0.0000    0.0000   -0.0000    0.0000   -0.0000    0.0000    0.0144
    24 C2     *pz       -0.0001    0.0001   -0.0003   -0.0001    0.0005   -0.0006   -0.0003   -0.0001    0.0001   -0.0020
    25 C2     *200      -0.0004    0.0000   -0.0000   -0.0001   -0.0005   -0.0000    0.0000   -0.0000   -0.0000    0.0092
    26 C2     *110       0.0005    0.0000   -0.0000   -0.0001   -0.0004    0.0000   -0.0001   -0.0000    0.0000   -0.0186
    27 C2     *101       0.0001    0.0000   -0.0000   -0.0000   -0.0002   -0.0000   -0.0000   -0.0000    0.0000   -0.0047
    28 C2     *020      -0.0002    0.0000   -0.0001   -0.0001   -0.0008   -0.0000    0.0001   -0.0000    0.0000   -0.0006
    29 C2     *011      -0.0001   -0.0000   -0.0000   -0.0000    0.0002    0.0000    0.0000    0.0000    0.0000    0.0039
    30 C2     *002      -0.0000    0.0000   -0.0000   -0.0000   -0.0015   -0.0001   -0.0001   -0.0000   -0.0000   -0.0113
    31 N3     1s        -0.0000   -0.0000   -0.0010    0.9950   -0.0003   -0.0003    0.0001    0.0000   -0.0001   -0.0553
    32 N3     2s        -0.0001   -0.0000   -0.0000    0.0256    0.0003    0.0003    0.0003    0.0001   -0.0002    0.1122
    33 N3     *s         0.0003    0.0002   -0.0007   -0.0055   -0.0002    0.0009   -0.0037   -0.0015    0.0022    0.1172
    34 N3     2px        0.0000   -0.0000    0.0001   -0.0002   -0.0001    0.0002   -0.0000    0.0000   -0.0000   -0.0287
    35 N3     *px       -0.0002    0.0003   -0.0005    0.0001    0.0016   -0.0037    0.0014    0.0001    0.0011   -0.0135
    36 N3     2py        0.0000    0.0000    0.0000   -0.0001   -0.0001   -0.0000   -0.0000   -0.0000    0.0000   -0.0147
    37 N3     *py       -0.0001   -0.0000    0.0007    0.0016    0.0007   -0.0002    0.0014    0.0007   -0.0007   -0.0177
    38 N3     2pz        0.0000    0.0000   -0.0000   -0.0000   -0.0000   -0.0000   -0.0000   -0.0000    0.0000   -0.0005
    39 N3     *pz       -0.0000   -0.0000    0.0001    0.0002    0.0000    0.0002    0.0001    0.0001   -0.0002   -0.0016
    40 N3     *200      -0.0001   -0.0001    0.0000   -0.0020   -0.0003   -0.0004    0.0001    0.0001   -0.0000    0.0063
[...]
--

********************************************************************************
 Compute H0 matrices for state    5
--------------------------------------------------------------------------------

 With new orbitals, the CI array of state    5
--------------------------------------------------------------------------------
 CI COEFFICIENTS LARGER THAN  0.50D-01
  Occupation of active orbitals, and spin coupling
  of open shells. (u,d: Spin up or down).
  SGUGA info is (Midvert:IsyUp:UpperWalk/LowerWalk)
        Conf  SGUGA info        Occupation     Coefficient         Weight
           1  ( 1:1:   1/   1)   2222222000      -0.096600       0.009332
           2  ( 1:1:   2/   1)   222222ud00       0.337313       0.113780
           3  ( 1:1:   3/   1)   22222u2d00       0.800666       0.641065
           4  ( 1:1:   4/   1)   2222220200      -0.160916       0.025894
           5  ( 1:1:   5/   1)   22222ud200      -0.064601       0.004173
           6  ( 1:1:   6/   1)   2222202200       0.072203       0.005213
           7  ( 1:1:   7/   1)   222222u0d0      -0.144753       0.020953
          10  ( 1:1:  10/   1)   22222udud0      -0.076166       0.005801
          16  ( 1:1:  16/   1)   22222ud020       0.051191       0.002621
          18  ( 1:1:  18/   1)   22222u0d20       0.065651       0.004310
          21  ( 1:1:  21/   1)   222222u00d      -0.095895       0.009196
          22  ( 1:1:  22/   1)   22222u200d      -0.135395       0.018332
          30  ( 1:1:  30/   1)   22222ud0ud       0.088552       0.007841
         203  ( 2:1:   3/   3)   22u22d2200       0.085796       0.007361
         206  ( 2:1:   6/   3)   22u22d2ud0      -0.052937       0.002802
         352  ( 2:1:   2/   5)   u22222d200       0.161804       0.026181
         358  ( 2:1:   8/   5)   u2222u2dd0      -0.073241       0.005364
         372  ( 2:1:  22/   5)   u22222du0d       0.051645       0.002667
         374  ( 2:1:  24/   5)   u22222ud0d      -0.052839       0.002792


  Constructing G3/F3
   memory avail:      3.593954800 GB
   memory used:       0.004078800 GB
  Sym:   1, #Tasks:    100
--------------------------------------------------------------------------------
 H0 matrices have been computed.

********************************************************************************
  CASPT2 EQUATION SOLUTION
--------------------------------------------------------------------------------

 Computing the S/B matrices
 --------------------------

  Construct S matrices

  Construct B matrices

  Find transformation matrices to eigenbasis of block-diagonal part of H0.
  Eliminate linear dependency. Thresholds for:
   Initial squared norm  :  0.1000E-09
   Eigenvalue of scaled S:  0.1000E-07

  Condition numbers are computed after diagonal scaling and after removal of
  linear dependency. Resulting sizes, condition numbers, and times:
    CASE(SYM)       NASUP       NISUP      NINDEP     COND NR  CPU (s)
   VJTU  (1)         1000          17         990   0.47E+08        1
   VJTIP (1)           55         153          55   0.19E+06        0
   VJTIM (1)           45         136          45   0.46E+05        0
   ATVX  (1)         1000         129         990   0.11E+08        1
   AIVX  (1)          200        2193         199   0.66E+06        0
   VJAIP (1)           10       19737          10   0.12E+04        0
   VJAIM (1)           10       17544          10   0.12E+04        0
   BVATP (1)           55        8385          55   0.16E+04        0
   BVATM (1)           45        8256          45   0.19E+03        0
   BJATP (1)           10      142545          10    22.            0
   BJATM (1)           10      140352          10    22.            0

  Total nr of CASPT2 parameters:
   Before reduction:     7039331
   After  reduction:     7035678

 Computing the right-hand side (RHS) elements
 --------------------------------------------
  Using RHSALL2+ADDRHS algorithm

 The contributions to the second order correlation energy in atomic units.
-----------------------------------------------------------------------------------------------------------------------------
  IT.      VJTU        VJTI        ATVX        AIVX        VJAI        BVAT        BJAT        BJAI        TOTAL       RNORM  
-----------------------------------------------------------------------------------------------------------------------------
   1    -0.000285   -0.003169   -0.070303   -0.173910   -0.023522   -0.122139   -0.347824   -0.562931   -1.304083    0.004694
   2    -0.000290   -0.003194   -0.070586   -0.174347   -0.023567   -0.122219   -0.348033   -0.563138   -1.305374    0.000404
   3    -0.000290   -0.003194   -0.070591   -0.174358   -0.023567   -0.122221   -0.348039   -0.563139   -1.305399    0.000045
   4    -0.000290   -0.003194   -0.070589   -0.174355   -0.023567   -0.122220   -0.348037   -0.563137   -1.305390    0.000006
-----------------------------------------------------------------------------------------------------------------------------

  FINAL CASPT2 RESULT:

  Correlation energy /Case, /Symm, and sums:
 VJTU     -0.00029001 -0.00029001
 VJTIP    -0.00272193 -0.00272193
 VJTIM    -0.00047240 -0.00047240
 ATVX     -0.07058929 -0.07058929
 AIVX     -0.17435508 -0.17435508
 VJAIP    -0.01585161 -0.01585161
 VJAIM    -0.00771517 -0.00771517
 BVATP    -0.08937570 -0.08937570
 BVATM    -0.03284442 -0.03284442
 BJATP    -0.13898534 -0.13898534
 BJATM    -0.20905187 -0.20905187
 BJAIP    -0.40442168 -0.40442168
 BJAIM    -0.15871531 -0.15871531
 Summed:  -1.30538979 -1.30538979

      Reference energy:        -451.3023240928
      E2 (Non-variational):      -1.3053897890
      Shift correction:          -0.0069764094
      E2 (Variational):          -1.3123661983
      Total energy:            -452.6146902911
      Residual norm:              0.0000008536
      Reference weight:           0.70543

      Contributions to the CASPT2 correlation energy
      Active & Virtual Only:         -0.1928094042
      One Inactive Excited:          -0.5226822878
      Two Inactive Excited:          -0.5898980969


++ Denominators, etc.
--------------------------------------------------------------------------------------------------------------
 Report on small energy denominators, large coefficients, and large energy contributions.
  The ACTIVE-MIX index denotes linear combinations which gives ON expansion functions
  and makes H0 diagonal within type.
  DENOMINATOR: The (H0_ii - E0) value from the above-mentioned diagonal approximation.
  RHS VALUE  : Right-Hand Side of CASPT2 Eqs.
  COEFFICIENT: Multiplies each of the above ON terms in the first-order wave function.
 Thresholds used:
         Denominators: 0.3000
         Coefficients: 0.0250
 Energy contributions: 0.0050

CASE  SYMM ACTIVE-MIX  NON-ACTIVE INDICES          DENOMINATOR     RHS VALUE       COEFFICIENT     CONTRIBUTION
VJTU     1  Mu1.0001  In1.018                       0.27419465      0.00000210     -0.00000685     -0.00000000
VJTU     1  Mu1.0001  In1.019                       0.25226637     -0.00000105      0.00000078     -0.00000000
VJTU     1  Mu1.0001  In1.020                       0.20854614     -0.00000321      0.00000788     -0.00000000
VJTU     1  Mu1.0001  In1.021                       0.21152756     -0.00000058      0.00000180     -0.00000000
VJTU     1  Mu1.0001  In1.022                       0.16390458      0.00000064     -0.00000174     -0.00000000
VJTU     1  Mu1.0001  In1.023                       0.07235407     -0.00000001      0.00000118     -0.00000000
VJTU     1  Mu1.0002  In1.023                       0.23639422      0.00000117     -0.00000423     -0.00000000
VJTU     1  Mu1.0001  In1.024                       0.04682330     -0.00054421      0.00118815     -0.00000065
VJTU     1  Mu1.0002  In1.024                       0.21086345      0.00033249     -0.00092345     -0.00000031
VJTU     1  Mu1.0001  In1.025                       0.02278288     -0.00000021      0.00000048     -0.00000000
VJTU     1  Mu1.0002  In1.025                       0.18682304     -0.00000084      0.00000319     -0.00000000
VJTU     1  Mu1.0001  In1.026                       0.01629926     -0.00000002     -0.00000050      0.00000000
VJTU     1  Mu1.0002  In1.026                       0.18033941      0.00000018      0.00000005      0.00000000
ATVX     1  Mu1.0001  Se1.037                      -0.01935921     -0.00000007     -0.00000005      0.00000000
ATVX     1  Mu1.0002  Se1.037                       0.05325056     -0.00000067      0.00000058     -0.00000000
ATVX     1  Mu1.0003  Se1.037                       0.19238677      0.00000038     -0.00000119     -0.00000000
ATVX     1  Mu1.0004  Se1.037                       0.21770303      0.00503870     -0.01264322     -0.00006371
ATVX     1  Mu1.0005  Se1.037                       0.25643115      0.00503221     -0.01203686     -0.00006057
ATVX     1  Mu1.0006  Se1.037                       0.26205662      0.00002515     -0.00006010     -0.00000000
ATVX     1  Mu1.0007  Se1.037                       0.28410141     -0.00000267      0.00000628     -0.00000000
ATVX     1  Mu1.0001  Se1.038                       0.01481222      0.00000033     -0.00000017     -0.00000000
ATVX     1  Mu1.0002  Se1.038                       0.08742199      0.00000274     -0.00000501     -0.00000000
ATVX     1  Mu1.0003  Se1.038                       0.22655820      0.00000205     -0.00000528     -0.00000000
ATVX     1  Mu1.0004  Se1.038                       0.25187445      0.00158975     -0.00404171     -0.00000643
ATVX     1  Mu1.0005  Se1.038                       0.29060258      0.00080500     -0.00150554     -0.00000121
ATVX     1  Mu1.0006  Se1.038                       0.29622804      0.00000185     -0.00000206     -0.00000000
ATVX     1  Mu1.0001  Se1.039                       0.05322469      0.00000027     -0.00000032     -0.00000000
ATVX     1  Mu1.0002  Se1.039                       0.12583446     -0.00000027      0.00000054     -0.00000000
ATVX     1  Mu1.0003  Se1.039                       0.26497067     -0.00000002      0.00000052     -0.00000000
ATVX     1  Mu1.0004  Se1.039                       0.29028693      0.00173031     -0.00424548     -0.00000735
ATVX     1  Mu1.0001  Se1.040                       0.08848810      0.00000364     -0.00000700     -0.00000000
ATVX     1  Mu1.0002  Se1.040                       0.16109788      0.00000402     -0.00000915     -0.00000000
ATVX     1  Mu1.0001  Se1.041                       0.12717585      0.00000737     -0.00001480     -0.00000000
ATVX     1  Mu1.0002  Se1.041                       0.19978562      0.00000960     -0.00002422     -0.00000000
ATVX     1  Mu1.0001  Se1.042                       0.13172096     -0.00253140      0.00545864     -0.00001382
ATVX     1  Mu1.0002  Se1.042                       0.20433073     -0.00342365      0.00850671     -0.00002912
ATVX     1  Mu1.0001  Se1.043                       0.18907643     -0.00000083      0.00000183     -0.00000000
ATVX     1  Mu1.0002  Se1.043                       0.26168620     -0.00000103      0.00000231     -0.00000000
ATVX     1  Mu1.0001  Se1.044                       0.22297382      0.00000091     -0.00000198     -0.00000000
ATVX     1  Mu1.0002  Se1.044                       0.29558359      0.00000106     -0.00000222     -0.00000000
ATVX     1  Mu1.0001  Se1.045                       0.16845003     -0.00000081      0.00000211     -0.00000000
ATVX     1  Mu1.0002  Se1.045                       0.24105980      0.00000365     -0.00000848     -0.00000000
ATVX     1  Mu1.0001  Se1.046                       0.20465612      0.00000218     -0.00000500     -0.00000000
ATVX     1  Mu1.0002  Se1.046                       0.27726589      0.00000300     -0.00000670     -0.00000000
ATVX     1  Mu1.0001  Se1.047                       0.26993635     -0.00000117      0.00000273     -0.00000000
ATVX     1  Mu1.0001  Se1.048                       0.29558688     -0.00000304      0.00000658     -0.00000000
ATVX     1  Mu1.0004  Se1.051                       0.67869087     -0.02097781      0.02882818     -0.00060475
AIVX     1  Mu1.0001  In1.023 Se1.037               0.29805049      0.00020339      0.00087099      0.00000018
AIVX     1  Mu1.0001  In1.024 Se1.037               0.27251972      0.00000010     -0.00000043     -0.00000000
AIVX     1  Mu1.0001  In1.025 Se1.037               0.24847930      0.00041254     -0.00108807     -0.00000045
AIVX     1  Mu1.0001  In1.026 Se1.037               0.24199568     -0.00016895     -0.00124603      0.00000021
AIVX     1  Mu1.0001  In1.025 Se1.038               0.28265073      0.00030799     -0.00075409     -0.00000023
AIVX     1  Mu1.0001  In1.026 Se1.038               0.27616711     -0.00135129      0.00289900     -0.00000392
BJAIP    1  Se1.042 In1.024 Se1.042 In1.024         1.78639376      0.05327172     -0.02967696     -0.00158094
--

   (Skipping property calculation,
    use PROP keyword to activate)

  CASPT2 TIMING INFO FOR STATE      5

                         cpu time  (s)  wall time (s) 
                         -------------  ------------- 

  Group initialization            2.38          2.46
  - Fock matrix build             1.37          1.39
  - integral transforms           0.98          1.01
  State initialization            0.25          0.46
  - density matrices              0.25          0.24
  CASPT2 equations               18.86         21.53
  - H0 S/B matrices               0.03          0.04
  - H0 S/B diag                   2.11          2.14
  - H0 NA diag                    0.00          0.00
  - RHS construction              0.59          0.66
  - PCG solver                   16.11         18.39
    - scaling                     0.03          0.74
    - lin. comb.                  0.10          2.70
    - inner products              0.13          2.62
    - basis transforms            0.55          5.61
    - sigma routines             14.96         82.67
  - array collection              0.00          0.00
  Properties                      0.00          0.00
  Gradient/MS coupling            0.00          0.00
 Total time                      21.49         24.45

--

  Total CASPT2 energies:
::    CASPT2 Root  1     Total energy:   -452.84805760
::    CASPT2 Root  2     Total energy:   -452.66091342
::    CASPT2 Root  3     Total energy:   -452.65807296
::    CASPT2 Root  4     Total energy:   -452.60600606
::    CASPT2 Root  5     Total energy:   -452.61469029

  Relative CASPT2 energies:
 Root          (a.u.)       (eV)    (cm^-1)   (kJ/mol)
    1      0.00000000       0.00        0.0       0.00
    2      0.18714418       5.09    41073.4     491.35
    3      0.18998464       5.17    41696.8     498.80
    4      0.24205154       6.59    53124.2     635.51
    5      0.23336731       6.35    51218.2     612.71

  A NEW JOBIPH FILE NAMED 'JOBMIX' IS PREPARED.
********************************************************************************
++ I/O STATISTICS
 
  I. General I/O information
  - - - - - - - - - - - - - - - - - - - - - - - - - - - - - - - - - - - - - - - - - - -
  Unit  Name          Flsize      Write/Read            MBytes           Write/Read
                      (MBytes)       Calls              In/Out           Time, sec.
  - - - - - - - - - - - - - - - - - - - - - - - - - - - - - - - - - - - - - - - - - - -
   1  RUNFILE           1.34 .     133/    1653 .      0.9/     11.8 .       0/       0
   2  LUSOLV            7.55 .     669/     674 .     79.9/     82.3 .       0/       0
   3  LUSBT            52.34 .     370/    4741 .    246.8/   3461.9 .       0/       0
   4  LUHLF1            0.00 .       0/       0 .      0.0/      0.0 .       0/       0
   5  LUHLF2            0.00 .       0/       0 .      0.0/      0.0 .       0/       0
   6  LUHLF3            0.00 .       0/       0 .      0.0/      0.0 .       0/       0
   7  DRARR            20.62 .      20/      40 .    103.1/    232.9 .       0/       0
   8  DRARRT            0.00 .       0/       0 .      0.0/      0.0 .       0/       0
   9  RHS_01           53.71 .      65/     481 .    268.4/   1986.1 .       0/       0
  10  RHS_02           53.71 .     636/    1727 .   2424.4/   7252.6 .       0/       1
  11  RHS_03           53.71 .     766/    1884 .   3223.7/   7840.0 .       0/       1
  12  RHS_04           53.71 .    1361/    3931 .   5075.4/  16560.0 .       1/       2
  13  RHS_05           53.71 .    2591/    2877 .  11088.0/  12268.8 .       2/       2
  14  RHS_06           53.71 .     150/     150 .    576.1/    576.1 .       0/       0
  15  H0T_01            0.00 .       0/       0 .      0.0/      0.0 .       0/       0
  16  H0T_02            0.00 .       0/       0 .      0.0/      0.0 .       0/       0
  17  H0T_03            0.00 .       0/       0 .      0.0/      0.0 .       0/       0
  18  H0T_04            0.00 .       0/       0 .      0.0/      0.0 .       0/       0
  19  LUDMAT            1.55 .      40/      35 .      7.7/      7.3 .       0/       0
  20  LUCIEX            0.38 .      30/     110 .      1.1/      4.2 .       0/       0
  21  MOLONE            0.64 .      21/       6 .      3.4/      1.2 .       0/       0
  22  MOLINT            0.00 .       0/       0 .      0.0/      0.0 .       0/       0
  23  A_PT2             0.00 .       0/       0 .      0.0/      0.0 .       0/       0
  24  JOBIPH            4.13 .       0/      43 .      0.0/      2.1 .       0/       0
  25  CHRED             0.22 .       0/      24 .      0.0/      1.3 .       0/       0
  26  CHVEC1           74.59 .       0/      10 .      0.0/    745.9 .       0/       0
  27  CHORST            0.03 .       0/      12 .      0.0/      0.0 .       0/       0
  28  CHOMAP            0.01 .       0/       0 .      0.0/      0.0 .       0/       0
  29  ONEINT            4.40 .       0/      80 .      0.0/     14.0 .       0/       0
  30  JOBMIX            4.13 .      35/       0 .      1.7/      0.0 .       0/       0
  - - - - - - - - - - - - - - - - - - - - - - - - - - - - - - - - - - - - - - - - - - -
   *  TOTAL           494.15 .    6887/   18478 .  23100.6/  51048.5 .       4/       8
  - - - - - - - - - - - - - - - - - - - - - - - - - - - - - - - - - - - - - - - - - - -
 
  II. I/O Access Patterns
  - - - - - - - - - - - - - - - - - - - -
  Unit  Name               % of random
                         Write/Read calls
  - - - - - - - - - - - - - - - - - - - -
   1  RUNFILE             28.6/  11.2
   2  LUSOLV               8.8/   9.6
   3  LUSBT               95.7/  79.7
   4  LUHLF1               0.0/   0.0
   5  LUHLF2               0.0/   0.0
   6  LUHLF3               0.0/   0.0
   7  DRARR               70.0/ 100.0
   8  DRARRT               0.0/   0.0
   9  RHS_01              29.2/  30.8
  10  RHS_02              92.8/  29.3
  11  RHS_03              94.0/  30.1
  12  RHS_04              92.2/  29.0
  13  RHS_05              78.9/  27.9
  14  RHS_06              59.3/  36.7
  15  H0T_01               0.0/   0.0
  16  H0T_02               0.0/   0.0
  17  H0T_03               0.0/   0.0
  18  H0T_04               0.0/   0.0
  19  LUDMAT              22.5/  28.6
  20  LUCIEX              83.3/  89.1
  21  MOLONE              47.6/ 100.0
  22  MOLINT               0.0/   0.0
  23  A_PT2                0.0/   0.0
  24  JOBIPH               0.0/  95.3
  25  CHRED                0.0/  41.7
  26  CHVEC1               0.0/  90.0
  27  CHORST               0.0/   0.0
  28  CHOMAP               0.0/   0.0
  29  ONEINT               0.0/  12.5
  30  JOBMIX              97.1/   0.0
  - - - - - - - - - - - - - - - - - - - -
--
--- Stop Module: caspt2 at Thu Mar 30 15:59:18 2023 /rc=_RC_ALL_IS_WELL_ ---
*** files: xmldump
    saved to directory /home/marlenne/thymine/Thymine/MOLCAS/3.Ground_State/1.GS_non-planar/CASPT2
--- Module caspt2 spent 2 minutes 6 seconds ---
 Happy landing!
    Timing: Wall=162.14 User=147.54 System=13.69
