[Molden Format]
[N_Atoms]
                   15
[Atoms] (AU)
N1          1      7          -2.25073627     -1.78532214     -0.19001512
C2          2      6          -2.30735248      0.77542884      0.15241973
N3          3      7           0.04247330      1.86327992      0.17340123
C4          4      6           2.35985686      0.67301693     -0.10770248
C5          5      6           2.22680122     -2.08084290     -0.46668797
C6          6      6          -0.05008421     -3.14352927     -0.48732350
O7          7      8          -4.22116734      1.94532892      0.40812880
O8          8      8           4.27588430      1.86737715     -0.05048740
H9          9      1          -0.31083143     -5.13998225     -0.73916936
H10        10      1           0.07959785      3.73120340      0.41925840
H11        11      1          -3.92412509     -2.63678785     -0.21608449
C12        12      6           4.66563032     -3.49802885     -0.78510201
H13        13      1           5.69867033     -2.80979233     -2.41505370
H14        14      1           5.87365959     -3.24184559      0.84969523
H15        15      1           4.31717752     -5.50177647     -1.03165163
[Charge] (Mulliken)
   0.0000000000000000     
   0.0000000000000000     
   0.0000000000000000     
   0.0000000000000000     
   0.0000000000000000     
   0.0000000000000000     
   0.0000000000000000     
   0.0000000000000000     
   0.0000000000000000     
   0.0000000000000000     
   0.0000000000000000     
   0.0000000000000000     
   0.0000000000000000     
   0.0000000000000000     
   0.0000000000000000     
[GTO] (AU)
   1
   s   6
  0.417351146E+04  0.183477216E-02
  0.627457911E+03  0.139946270E-01
  0.142902093E+03  0.685865518E-01
  0.402343293E+02  0.232240873E+00
  0.128202129E+02  0.469069948E+00
  0.439043701E+01  0.360455199E+00
   s   3
  0.116263619E+02 -0.114961182E+00
  0.271627981E+01 -0.169117479E+00
  0.772218397E+00  0.114585195E+01
   s   1
  0.212031497E+00  0.100000000E+01
   p   3
  0.116263619E+02  0.675797439E-01
  0.271627981E+01  0.323907296E+00
  0.772218397E+00  0.740895140E+00
   p   1
  0.212031497E+00  0.100000000E+01
   d   1
  0.800000000E+00  0.100000000E+01
 
   2
   s   6
  0.304752488E+04  0.183473713E-02
  0.457369518E+03  0.140373228E-01
  0.103948685E+03  0.688426223E-01
  0.292101553E+02  0.232184443E+00
  0.928666296E+01  0.467941348E+00
  0.316392696E+01  0.362311985E+00
   s   3
  0.786827235E+01 -0.119332420E+00
  0.188128854E+01 -0.160854152E+00
  0.544249258E+00  0.114345644E+01
   s   1
  0.168714478E+00  0.100000000E+01
   p   3
  0.786827235E+01  0.689990666E-01
  0.188128854E+01  0.316423961E+00
  0.544249258E+00  0.744308291E+00
   p   1
  0.168714478E+00  0.100000000E+01
   d   1
  0.800000000E+00  0.100000000E+01
 
   3
   s   6
  0.417351146E+04  0.183477216E-02
  0.627457911E+03  0.139946270E-01
  0.142902093E+03  0.685865518E-01
  0.402343293E+02  0.232240873E+00
  0.128202129E+02  0.469069948E+00
  0.439043701E+01  0.360455199E+00
   s   3
  0.116263619E+02 -0.114961182E+00
  0.271627981E+01 -0.169117479E+00
  0.772218397E+00  0.114585195E+01
   s   1
  0.212031497E+00  0.100000000E+01
   p   3
  0.116263619E+02  0.675797439E-01
  0.271627981E+01  0.323907296E+00
  0.772218397E+00  0.740895140E+00
   p   1
  0.212031497E+00  0.100000000E+01
   d   1
  0.800000000E+00  0.100000000E+01
 
   4
   s   6
  0.304752488E+04  0.183473713E-02
  0.457369518E+03  0.140373228E-01
  0.103948685E+03  0.688426223E-01
  0.292101553E+02  0.232184443E+00
  0.928666296E+01  0.467941348E+00
  0.316392696E+01  0.362311985E+00
   s   3
  0.786827235E+01 -0.119332420E+00
  0.188128854E+01 -0.160854152E+00
  0.544249258E+00  0.114345644E+01
   s   1
  0.168714478E+00  0.100000000E+01
   p   3
  0.786827235E+01  0.689990666E-01
  0.188128854E+01  0.316423961E+00
  0.544249258E+00  0.744308291E+00
   p   1
  0.168714478E+00  0.100000000E+01
   d   1
  0.800000000E+00  0.100000000E+01
 
   5
   s   6
  0.304752488E+04  0.183473713E-02
  0.457369518E+03  0.140373228E-01
  0.103948685E+03  0.688426223E-01
  0.292101553E+02  0.232184443E+00
  0.928666296E+01  0.467941348E+00
  0.316392696E+01  0.362311985E+00
   s   3
  0.786827235E+01 -0.119332420E+00
  0.188128854E+01 -0.160854152E+00
  0.544249258E+00  0.114345644E+01
   s   1
  0.168714478E+00  0.100000000E+01
   p   3
  0.786827235E+01  0.689990666E-01
  0.188128854E+01  0.316423961E+00
  0.544249258E+00  0.744308291E+00
   p   1
  0.168714478E+00  0.100000000E+01
   d   1
  0.800000000E+00  0.100000000E+01
 
   6
   s   6
  0.304752488E+04  0.183473713E-02
  0.457369518E+03  0.140373228E-01
  0.103948685E+03  0.688426223E-01
  0.292101553E+02  0.232184443E+00
  0.928666296E+01  0.467941348E+00
  0.316392696E+01  0.362311985E+00
   s   3
  0.786827235E+01 -0.119332420E+00
  0.188128854E+01 -0.160854152E+00
  0.544249258E+00  0.114345644E+01
   s   1
  0.168714478E+00  0.100000000E+01
   p   3
  0.786827235E+01  0.689990666E-01
  0.188128854E+01  0.316423961E+00
  0.544249258E+00  0.744308291E+00
   p   1
  0.168714478E+00  0.100000000E+01
   d   1
  0.800000000E+00  0.100000000E+01
 
   7
   s   6
  0.548467166E+04  0.183107443E-02
  0.825234946E+03  0.139501722E-01
  0.188046958E+03  0.684450781E-01
  0.529645000E+02  0.232714336E+00
  0.168975704E+02  0.470192898E+00
  0.579963534E+01  0.358520853E+00
   s   3
  0.155396162E+02 -0.110777550E+00
  0.359993359E+01 -0.148026263E+00
  0.101376175E+01  0.113076702E+01
   s   1
  0.270005823E+00  0.100000000E+01
   p   3
  0.155396162E+02  0.708742682E-01
  0.359993359E+01  0.339752839E+00
  0.101376175E+01  0.727158577E+00
   p   1
  0.270005823E+00  0.100000000E+01
   d   1
  0.800000000E+00  0.100000000E+01
 
   8
   s   6
  0.548467166E+04  0.183107443E-02
  0.825234946E+03  0.139501722E-01
  0.188046958E+03  0.684450781E-01
  0.529645000E+02  0.232714336E+00
  0.168975704E+02  0.470192898E+00
  0.579963534E+01  0.358520853E+00
   s   3
  0.155396162E+02 -0.110777550E+00
  0.359993359E+01 -0.148026263E+00
  0.101376175E+01  0.113076702E+01
   s   1
  0.270005823E+00  0.100000000E+01
   p   3
  0.155396162E+02  0.708742682E-01
  0.359993359E+01  0.339752839E+00
  0.101376175E+01  0.727158577E+00
   p   1
  0.270005823E+00  0.100000000E+01
   d   1
  0.800000000E+00  0.100000000E+01
 
   9
   s   3
  0.187311370E+02  0.334946043E-01
  0.282539437E+01  0.234726954E+00
  0.640121692E+00  0.813757326E+00
   s   1
  0.161277759E+00  0.100000000E+01
   p   1
  0.110000000E+01  0.100000000E+01
 
  10
   s   3
  0.187311370E+02  0.334946043E-01
  0.282539437E+01  0.234726954E+00
  0.640121692E+00  0.813757326E+00
   s   1
  0.161277759E+00  0.100000000E+01
   p   1
  0.110000000E+01  0.100000000E+01
 
  11
   s   3
  0.187311370E+02  0.334946043E-01
  0.282539437E+01  0.234726954E+00
  0.640121692E+00  0.813757326E+00
   s   1
  0.161277759E+00  0.100000000E+01
   p   1
  0.110000000E+01  0.100000000E+01
 
  12
   s   6
  0.304752488E+04  0.183473713E-02
  0.457369518E+03  0.140373228E-01
  0.103948685E+03  0.688426223E-01
  0.292101553E+02  0.232184443E+00
  0.928666296E+01  0.467941348E+00
  0.316392696E+01  0.362311985E+00
   s   3
  0.786827235E+01 -0.119332420E+00
  0.188128854E+01 -0.160854152E+00
  0.544249258E+00  0.114345644E+01
   s   1
  0.168714478E+00  0.100000000E+01
   p   3
  0.786827235E+01  0.689990666E-01
  0.188128854E+01  0.316423961E+00
  0.544249258E+00  0.744308291E+00
   p   1
  0.168714478E+00  0.100000000E+01
   d   1
  0.800000000E+00  0.100000000E+01
 
  13
   s   3
  0.187311370E+02  0.334946043E-01
  0.282539437E+01  0.234726954E+00
  0.640121692E+00  0.813757326E+00
   s   1
  0.161277759E+00  0.100000000E+01
   p   1
  0.110000000E+01  0.100000000E+01
 
  14
   s   3
  0.187311370E+02  0.334946043E-01
  0.282539437E+01  0.234726954E+00
  0.640121692E+00  0.813757326E+00
   s   1
  0.161277759E+00  0.100000000E+01
   p   1
  0.110000000E+01  0.100000000E+01
 
  15
   s   3
  0.187311370E+02  0.334946043E-01
  0.282539437E+01  0.234726954E+00
  0.640121692E+00  0.813757326E+00
   s   1
  0.161277759E+00  0.100000000E+01
   p   1
  0.110000000E+01  0.100000000E+01
 
[MO]
Sym=     1a  
Ene=   -20.6880
Spin= Alpha
Occup=    2.00000
   1         0.00000262
   2        -0.00003953
   3        -0.00004155
   4         0.00004136
   5        -0.00007537
   6        -0.00001216
   7         0.00002400
   8        -0.00004374
   9        -0.00000706
  10         0.00000000
  11         0.00000000
  12         0.00000000
  13         0.00000000
  14         0.00000000
  15        -0.00000000
  16        -0.00009564
  17        -0.00055683
  18        -0.00061790
  19         0.00068642
  20        -0.00041776
  21        -0.00009147
  22         0.00042867
  23        -0.00026089
  24        -0.00005712
  25         0.00000000
  26         0.00000000
  27         0.00000000
  28        -0.00000000
  29         0.00000000
  30        -0.00000000
  31         0.00001049
  32         0.00000371
  33         0.00000369
  34         0.00017735
  35        -0.00000166
  36        -0.00000958
  37         0.00010292
  38        -0.00000096
  39        -0.00000556
  40         0.00000000
  41         0.00000000
  42         0.00000000
  43        -0.00000000
  44        -0.00000000
  45        -0.00000000
  46         0.00009661
  47         0.00057102
  48         0.00063369
  49         0.00070387
  50         0.00043739
  51         0.00002084
  52         0.00043956
  53         0.00027315
  54         0.00001301
  55        -0.00000000
  56        -0.00000000
  57        -0.00000000
  58         0.00000000
  59         0.00000000
  60         0.00000000
  61        -0.00002602
  62         0.00003741
  63         0.00004220
  64         0.00003928
  65         0.00007322
  66         0.00000765
  67         0.00002453
  68         0.00004572
  69         0.00000478
  70         0.00000000
  71        -0.00000000
  72        -0.00000000
  73        -0.00000000
  74         0.00000000
  75         0.00000000
  76        -0.00000221
  77        -0.00000020
  78        -0.00000018
  79         0.00000289
  80         0.00000013
  81        -0.00000014
  82         0.00000180
  83         0.00000008
  84        -0.00000008
  85         0.00000000
  86         0.00000000
  87         0.00000000
  88        -0.00000000
  89         0.00000000
  90         0.00000000
  91        -0.69494516
  92        -0.01301235
  93         0.00209730
  94        -0.00001458
  95         0.00000887
  96         0.00000194
  97        -0.00000987
  98         0.00000601
  99         0.00000132
 100        -0.00000000
 101        -0.00000000
 102        -0.00000000
 103         0.00000000
 104        -0.00000000
 105        -0.00000000
 106         0.71322509
 107         0.01335469
 108        -0.00215242
 109        -0.00001500
 110        -0.00000925
 111        -0.00000043
 112        -0.00001016
 113        -0.00000627
 114        -0.00000029
 115        -0.00000000
 116        -0.00000000
 117        -0.00000000
 118         0.00000000
 119        -0.00000000
 120         0.00000000
 121        -0.00000012
 122        -0.00000014
 123         0.00000000
 124        -0.00000000
 125        -0.00000000
 126         0.00000206
 127         0.00000230
 128         0.00000000
 129        -0.00000000
 130         0.00000000
 131        -0.00002392
 132        -0.00002671
 133        -0.00000000
 134         0.00000000
 135         0.00000000
 136         0.00000317
 137         0.00000893
 138         0.00000988
 139        -0.00000171
 140         0.00002164
 141         0.00000297
 142        -0.00000107
 143         0.00001351
 144         0.00000185
 145        -0.00000000
 146        -0.00000000
 147        -0.00000000
 148         0.00000000
 149         0.00000000
 150        -0.00000000
 151         0.00000721
 152         0.00000805
 153        -0.00000000
 154        -0.00000000
 155        -0.00000000
 156         0.00000723
 157         0.00000808
 158         0.00000000
 159        -0.00000000
 160         0.00000000
 161         0.00000015
 162         0.00000017
 163        -0.00000000
 164         0.00000000
 165         0.00000000
Sym=     2a  
Ene=   -20.6880
Spin= Alpha
Occup=    2.00000
   1        -0.00002468
   2         0.00003772
   3         0.00004007
   4        -0.00004419
   5         0.00007652
   6         0.00001247
   7        -0.00002564
   8         0.00004441
   9         0.00000723
  10         0.00000000
  11        -0.00000000
  12        -0.00000000
  13         0.00000000
  14        -0.00000000
  15        -0.00000000
  16         0.00007304
  17         0.00057028
  18         0.00063337
  19        -0.00070106
  20         0.00043029
  21         0.00009390
  22        -0.00043781
  23         0.00026872
  24         0.00005864
  25         0.00000000
  26         0.00000000
  27        -0.00000000
  28         0.00000000
  29        -0.00000000
  30         0.00000000
  31        -0.00001928
  32         0.00007845
  33         0.00008273
  34         0.00000193
  35         0.00000628
  36         0.00000069
  37         0.00000112
  38         0.00000365
  39         0.00000040
  40        -0.00000000
  41        -0.00000000
  42         0.00000000
  43         0.00000000
  44        -0.00000000
  45        -0.00000000
  46         0.00006972
  47         0.00055492
  48         0.00061633
  49         0.00068320
  50         0.00042756
  51         0.00002062
  52         0.00042666
  53         0.00026701
  54         0.00001288
  55         0.00000000
  56         0.00000000
  57         0.00000000
  58        -0.00000000
  59        -0.00000000
  60         0.00000000
  61        -0.00003339
  62         0.00003466
  63         0.00003930
  64         0.00003925
  65         0.00007074
  66         0.00000732
  67         0.00002451
  68         0.00004418
  69         0.00000457
  70         0.00000000
  71        -0.00000000
  72        -0.00000000
  73         0.00000000
  74         0.00000000
  75         0.00000000
  76        -0.00002869
  77        -0.00000163
  78        -0.00000120
  79        -0.00000009
  80         0.00000230
  81         0.00000031
  82        -0.00000006
  83         0.00000144
  84         0.00000019
  85        -0.00000000
  86        -0.00000000
  87        -0.00000000
  88         0.00000000
  89        -0.00000000
  90        -0.00000000
  91         0.71322696
  92         0.01335389
  93        -0.00215322
  94         0.00001434
  95        -0.00000883
  96        -0.00000192
  97         0.00000971
  98        -0.00000598
  99        -0.00000130
 100         0.00000000
 101         0.00000000
 102         0.00000000
 103        -0.00000000
 104        -0.00000000
 105        -0.00000000
 106         0.69494694
 107         0.01301165
 108        -0.00209801
 109        -0.00001396
 110        -0.00000876
 111        -0.00000042
 112        -0.00000946
 113        -0.00000593
 114        -0.00000029
 115        -0.00000000
 116        -0.00000000
 117        -0.00000000
 118        -0.00000000
 119        -0.00000000
 120         0.00000000
 121        -0.00000062
 122        -0.00000069
 123        -0.00000000
 124         0.00000000
 125         0.00000000
 126         0.00004797
 127         0.00005356
 128         0.00000000
 129         0.00000000
 130         0.00000000
 131         0.00002419
 132         0.00002701
 133         0.00000000
 134        -0.00000000
 135         0.00000000
 136         0.00000300
 137         0.00000856
 138         0.00000946
 139        -0.00000147
 140         0.00002096
 141         0.00000287
 142        -0.00000092
 143         0.00001309
 144         0.00000179
 145        -0.00000000
 146        -0.00000000
 147        -0.00000000
 148         0.00000000
 149        -0.00000000
 150        -0.00000000
 151         0.00000699
 152         0.00000780
 153         0.00000000
 154        -0.00000000
 155         0.00000000
 156         0.00000701
 157         0.00000783
 158         0.00000000
 159        -0.00000000
 160        -0.00000000
 161         0.00000010
 162         0.00000012
 163        -0.00000000
 164         0.00000000
 165         0.00000000
Sym=     3a  
Ene=   -15.6450
Spin= Alpha
Occup=    2.00000
   1         0.74733111
   2         0.01507739
   3         0.00153368
   4         0.00008673
   5         0.00012733
   6         0.00001229
   7         0.00005033
   8         0.00007389
   9         0.00000714
  10         0.00000000
  11        -0.00000000
  12         0.00000000
  13         0.00000000
  14        -0.00000000
  15         0.00000000
  16         0.00155758
  17         0.00141153
  18         0.00153820
  19         0.00088119
  20        -0.00067584
  21        -0.00013581
  22         0.00055030
  23        -0.00042206
  24        -0.00008482
  25         0.00000000
  26         0.00000000
  27         0.00000000
  28        -0.00000000
  29         0.00000000
  30         0.00000000
  31         0.65576238
  32         0.01324821
  33         0.00136489
  34        -0.00008717
  35        -0.00014892
  36        -0.00001519
  37        -0.00005059
  38        -0.00008643
  39        -0.00000882
  40        -0.00000000
  41        -0.00000000
  42        -0.00000000
  43         0.00000000
  44         0.00000000
  45         0.00000000
  46         0.00071364
  47         0.00066711
  48         0.00072746
  49        -0.00086900
  50         0.00038308
  51         0.00009700
  52        -0.00054269
  53         0.00023923
  54         0.00006058
  55         0.00000000
  56         0.00000000
  57         0.00000000
  58         0.00000000
  59        -0.00000000
  60        -0.00000000
  61         0.00002824
  62         0.00014689
  63         0.00016294
  64        -0.00023003
  65         0.00012875
  66         0.00002931
  67        -0.00014365
  68         0.00008040
  69         0.00001830
  70         0.00000000
  71         0.00000000
  72         0.00000000
  73        -0.00000000
  74        -0.00000000
  75         0.00000000
  76         0.00086944
  77         0.00077577
  78         0.00084510
  79        -0.00089357
  80         0.00062728
  81         0.00013079
  82        -0.00055803
  83         0.00039173
  84         0.00008168
  85         0.00000000
  86        -0.00000000
  87        -0.00000000
  88        -0.00000000
  89        -0.00000000
  90        -0.00000000
  91        -0.00006979
  92         0.00012469
  93         0.00012022
  94         0.00015809
  95        -0.00010725
  96        -0.00002252
  97         0.00010708
  98        -0.00007264
  99        -0.00001526
 100        -0.00000000
 101        -0.00000000
 102        -0.00000000
 103         0.00000000
 104         0.00000000
 105         0.00000000
 106        -0.00002999
 107         0.00006095
 108         0.00005868
 109        -0.00011111
 110         0.00000239
 111         0.00000621
 112        -0.00007526
 113         0.00000162
 114         0.00000420
 115         0.00000000
 116         0.00000000
 117         0.00000000
 118        -0.00000000
 119        -0.00000000
 120         0.00000000
 121         0.00012869
 122         0.00014369
 123        -0.00000000
 124        -0.00000000
 125         0.00000000
 126         0.00086657
 127         0.00096757
 128        -0.00000000
 129        -0.00000000
 130         0.00000000
 131         0.00099291
 132         0.00110863
 133        -0.00000000
 134        -0.00000000
 135        -0.00000000
 136        -0.00007426
 137        -0.00000310
 138        -0.00000186
 139        -0.00000373
 140         0.00000204
 141         0.00000047
 142        -0.00000233
 143         0.00000127
 144         0.00000029
 145        -0.00000000
 146        -0.00000000
 147        -0.00000000
 148         0.00000000
 149        -0.00000000
 150        -0.00000000
 151        -0.00000120
 152        -0.00000135
 153         0.00000000
 154         0.00000000
 155         0.00000000
 156        -0.00000121
 157        -0.00000135
 158        -0.00000000
 159         0.00000000
 160        -0.00000000
 161        -0.00000118
 162        -0.00000132
 163         0.00000000
 164        -0.00000000
 165        -0.00000000
Sym=     4a  
Ene=   -15.6430
Spin= Alpha
Occup=    2.00000
   1        -0.65590780
   2        -0.01307978
   3        -0.00118529
   4         0.00008938
   5         0.00013656
   6         0.00001344
   7         0.00005187
   8         0.00007925
   9         0.00000780
  10         0.00000000
  11         0.00000000
  12         0.00000000
  13         0.00000000
  14         0.00000000
  15        -0.00000000
  16         0.00008285
  17         0.00008682
  18         0.00009488
  19         0.00095350
  20         0.00139019
  21         0.00013429
  22         0.00059546
  23         0.00086818
  24         0.00008386
  25         0.00000000
  26         0.00000000
  27        -0.00000000
  28        -0.00000000
  29        -0.00000000
  30        -0.00000000
  31         0.74748093
  32         0.01492595
  33         0.00137184
  34         0.00007430
  35         0.00012365
  36         0.00001248
  37         0.00004312
  38         0.00007176
  39         0.00000724
  40        -0.00000000
  41         0.00000000
  42        -0.00000000
  43        -0.00000000
  44         0.00000000
  45         0.00000000
  46         0.00071414
  47         0.00069452
  48         0.00075796
  49        -0.00087102
  50         0.00050051
  51         0.00011272
  52        -0.00054395
  53         0.00031257
  54         0.00007039
  55        -0.00000000
  56        -0.00000000
  57        -0.00000000
  58        -0.00000000
  59         0.00000000
  60        -0.00000000
  61         0.00003415
  62         0.00000469
  63         0.00000449
  64         0.00006681
  65         0.00011749
  66         0.00001208
  67         0.00004173
  68         0.00007337
  69         0.00000754
  70        -0.00000000
  71         0.00000000
  72         0.00000000
  73        -0.00000000
  74        -0.00000000
  75         0.00000000
  76        -0.00064991
  77        -0.00060760
  78        -0.00066257
  79         0.00078717
  80        -0.00040393
  81        -0.00009545
  82         0.00049159
  83        -0.00025226
  84        -0.00005961
  85         0.00000000
  86         0.00000000
  87         0.00000000
  88        -0.00000000
  89         0.00000000
  90         0.00000000
  91        -0.00000133
  92         0.00000683
  93         0.00000653
  94         0.00007314
  95         0.00009669
  96         0.00000898
  97         0.00004954
  98         0.00006549
  99         0.00000608
 100         0.00000000
 101        -0.00000000
 102         0.00000000
 103         0.00000000
 104         0.00000000
 105         0.00000000
 106        -0.00007906
 107         0.00007003
 108         0.00006835
 109        -0.00012488
 110         0.00000362
 111         0.00000710
 112        -0.00008459
 113         0.00000245
 114         0.00000481
 115         0.00000000
 116         0.00000000
 117         0.00000000
 118        -0.00000000
 119         0.00000000
 120        -0.00000000
 121        -0.00011072
 122        -0.00012362
 123        -0.00000000
 124        -0.00000000
 125         0.00000000
 126         0.00097678
 127         0.00109063
 128         0.00000000
 129         0.00000000
 130         0.00000000
 131        -0.00086171
 132        -0.00096214
 133        -0.00000000
 134         0.00000000
 135        -0.00000000
 136         0.00000040
 137         0.00000012
 138         0.00000012
 139        -0.00000011
 140         0.00000081
 141         0.00000011
 142        -0.00000007
 143         0.00000050
 144         0.00000007
 145        -0.00000000
 146        -0.00000000
 147        -0.00000000
 148        -0.00000000
 149         0.00000000
 150         0.00000000
 151        -0.00000011
 152        -0.00000012
 153         0.00000000
 154        -0.00000000
 155         0.00000000
 156        -0.00000011
 157        -0.00000013
 158        -0.00000000
 159         0.00000000
 160         0.00000000
 161        -0.00000001
 162        -0.00000001
 163         0.00000000
 164        -0.00000000
 165         0.00000000
Sym=     5a  
Ene=   -11.3540
Spin= Alpha
Occup=    2.00000
   1        -0.00204957
   2         0.00122793
   3         0.00132830
   4         0.00150888
   5        -0.00063587
   6        -0.00016463
   7         0.00087567
   8        -0.00036902
   9        -0.00009554
  10         0.00000000
  11         0.00000000
  12        -0.00000000
  13        -0.00000000
  14        -0.00000000
  15        -0.00000000
  16         0.04164559
  17         0.00097048
  18         0.00018906
  19         0.00029862
  20        -0.00021567
  21        -0.00004443
  22         0.00018649
  23        -0.00013469
  24        -0.00002774
  25        -0.00000000
  26        -0.00000000
  27        -0.00000000
  28         0.00000000
  29        -0.00000000
  30         0.00000000
  31        -0.00164097
  32         0.00095388
  33         0.00103278
  34         0.00093034
  35        -0.00079317
  36        -0.00015482
  37         0.00053992
  38        -0.00046031
  39        -0.00008985
  40         0.00000000
  41         0.00000000
  42         0.00000000
  43         0.00000000
  44        -0.00000000
  45        -0.00000000
  46         0.40191889
  47         0.00855348
  48         0.00091990
  49        -0.00015283
  50        -0.00159837
  51        -0.00020437
  52        -0.00009544
  53        -0.00099818
  54        -0.00012763
  55        -0.00000000
  56        -0.00000000
  57        -0.00000000
  58         0.00000000
  59         0.00000000
  60         0.00000000
  61         0.67396667
  62         0.01443496
  63         0.00164484
  64        -0.00086878
  65        -0.00004340
  66         0.00004008
  67        -0.00054255
  68        -0.00002710
  69         0.00002503
  70         0.00000000
  71         0.00000000
  72        -0.00000000
  73        -0.00000000
  74         0.00000000
  75        -0.00000000
  76         0.54760206
  77         0.01154113
  78         0.00112784
  79         0.00177647
  80         0.00090914
  81         0.00002671
  82         0.00110940
  83         0.00056775
  84         0.00001668
  85         0.00000000
  86         0.00000000
  87         0.00000000
  88        -0.00000000
  89        -0.00000000
  90        -0.00000000
  91        -0.00001642
  92         0.00012728
  93         0.00012157
  94         0.00013685
  95        -0.00008364
  96        -0.00001829
  97         0.00009269
  98        -0.00005665
  99        -0.00001239
 100        -0.00000000
 101        -0.00000000
 102        -0.00000000
 103        -0.00000000
 104        -0.00000000
 105        -0.00000000
 106        -0.00092992
 107         0.00139967
 108         0.00135253
 109        -0.00136280
 110        -0.00095121
 111        -0.00005421
 112        -0.00092307
 113        -0.00064428
 114        -0.00003672
 115         0.00000000
 116         0.00000000
 117         0.00000000
 118        -0.00000000
 119        -0.00000000
 120         0.00000000
 121         0.00127986
 122         0.00142903
 123        -0.00000000
 124         0.00000000
 125        -0.00000000
 126         0.00014946
 127         0.00016688
 128        -0.00000000
 129         0.00000000
 130        -0.00000000
 131         0.00018174
 132         0.00020292
 133        -0.00000000
 134         0.00000000
 135         0.00000000
 136         0.26044841
 137         0.00584070
 138         0.00092782
 139        -0.00133545
 140         0.00075405
 141         0.00017141
 142        -0.00083399
 143         0.00047090
 144         0.00010704
 145         0.00000000
 146         0.00000000
 147         0.00000000
 148        -0.00000000
 149         0.00000000
 150        -0.00000000
 151         0.00070519
 152         0.00078739
 153        -0.00000000
 154         0.00000000
 155        -0.00000000
 156         0.00070524
 157         0.00078744
 158         0.00000000
 159        -0.00000000
 160        -0.00000000
 161         0.00072640
 162         0.00081106
 163         0.00000000
 164        -0.00000000
 165        -0.00000000
Sym=     6a  
Ene=   -11.3460
Spin= Alpha
Occup=    2.00000
   1        -0.00326586
   2         0.00192390
   3         0.00208220
   4        -0.00003665
   5         0.00269954
   6         0.00035975
   7        -0.00002127
   8         0.00156666
   9         0.00020878
  10        -0.00000000
  11         0.00000000
  12        -0.00000000
  13        -0.00000000
  14        -0.00000000
  15        -0.00000000
  16         0.98987665
  17         0.01842845
  18        -0.00067112
  19        -0.00005062
  20         0.00001293
  21         0.00000439
  22        -0.00003161
  23         0.00000808
  24         0.00000274
  25         0.00000000
  26         0.00000000
  27        -0.00000000
  28        -0.00000000
  29        -0.00000000
  30        -0.00000000
  31        -0.00292838
  32         0.00173511
  33         0.00187756
  34        -0.00268034
  35        -0.00104772
  36         0.00000182
  37        -0.00155552
  38        -0.00060804
  39         0.00000106
  40         0.00000000
  41         0.00000000
  42         0.00000000
  43        -0.00000000
  44        -0.00000000
  45        -0.00000000
  46        -0.08336907
  47        -0.00142036
  48         0.00020317
  49        -0.00031754
  50         0.00001547
  51         0.00001883
  52        -0.00019830
  53         0.00000966
  54         0.00001176
  55        -0.00000000
  56        -0.00000000
  57        -0.00000000
  58         0.00000000
  59         0.00000000
  60        -0.00000000
  61        -0.01038552
  62        -0.00026586
  63        -0.00007369
  64        -0.00021283
  65        -0.00008543
  66        -0.00000008
  67        -0.00013291
  68        -0.00005335
  69        -0.00000005
  70        -0.00000000