[Molden Format]
[N_Atoms]
                   15
[Atoms] (AU)
N1          1      7          -2.25073627     -1.78532214     -0.19001512
C2          2      6          -2.30735248      0.77542884      0.15241973
N3          3      7           0.04247330      1.86327992      0.17340123
C4          4      6           2.35985686      0.67301693     -0.10770248
C5          5      6           2.22680122     -2.08084290     -0.46668797
C6          6      6          -0.05008421     -3.14352927     -0.48732350
O7          7      8          -4.22116734      1.94532892      0.40812880
O8          8      8           4.27588430      1.86737715     -0.05048740
H9          9      1          -0.31083143     -5.13998225     -0.73916936
H10        10      1           0.07959785      3.73120340      0.41925840
H11        11      1          -3.92412509     -2.63678785     -0.21608449
C12        12      6           4.66563032     -3.49802885     -0.78510201
H13        13      1           5.69867033     -2.80979233     -2.41505370
H14        14      1           5.87365959     -3.24184559      0.84969523
H15        15      1           4.31717752     -5.50177647     -1.03165163
[Charge] (Mulliken)
 -0.74386979523949659     
  0.92305901726546580     
 -0.57644316161975873     
  0.64824776519339267     
 -0.28996963960128230     
   4.6881532136969994E-002
 -0.49690611099570958     
 -0.40748468583431041     
  0.16258592563279495     
  0.33662667057545770     
  0.33518519012488579     
 -0.31732724816087821     
  0.13464828098283277     
  0.13468437819394063     
  0.11008188134292263     
[GTO] (AU)
   1
   s   6
  0.417351146E+04  0.183477216E-02
  0.627457911E+03  0.139946270E-01
  0.142902093E+03  0.685865518E-01
  0.402343293E+02  0.232240873E+00
  0.128202129E+02  0.469069948E+00
  0.439043701E+01  0.360455199E+00
   s   3
  0.116263619E+02 -0.114961182E+00
  0.271627981E+01 -0.169117479E+00
  0.772218397E+00  0.114585195E+01
   s   1
  0.212031497E+00  0.100000000E+01
   p   3
  0.116263619E+02  0.675797439E-01
  0.271627981E+01  0.323907296E+00
  0.772218397E+00  0.740895140E+00
   p   1
  0.212031497E+00  0.100000000E+01
   d   1
  0.800000000E+00  0.100000000E+01
 
   2
   s   6
  0.304752488E+04  0.183473713E-02
  0.457369518E+03  0.140373228E-01
  0.103948685E+03  0.688426223E-01
  0.292101553E+02  0.232184443E+00
  0.928666296E+01  0.467941348E+00
  0.316392696E+01  0.362311985E+00
   s   3
  0.786827235E+01 -0.119332420E+00
  0.188128854E+01 -0.160854152E+00
  0.544249258E+00  0.114345644E+01
   s   1
  0.168714478E+00  0.100000000E+01
   p   3
  0.786827235E+01  0.689990666E-01
  0.188128854E+01  0.316423961E+00
  0.544249258E+00  0.744308291E+00
   p   1
  0.168714478E+00  0.100000000E+01
   d   1
  0.800000000E+00  0.100000000E+01
 
   3
   s   6
  0.417351146E+04  0.183477216E-02
  0.627457911E+03  0.139946270E-01
  0.142902093E+03  0.685865518E-01
  0.402343293E+02  0.232240873E+00
  0.128202129E+02  0.469069948E+00
  0.439043701E+01  0.360455199E+00
   s   3
  0.116263619E+02 -0.114961182E+00
  0.271627981E+01 -0.169117479E+00
  0.772218397E+00  0.114585195E+01
   s   1
  0.212031497E+00  0.100000000E+01
   p   3
  0.116263619E+02  0.675797439E-01
  0.271627981E+01  0.323907296E+00
  0.772218397E+00  0.740895140E+00
   p   1
  0.212031497E+00  0.100000000E+01
   d   1
  0.800000000E+00  0.100000000E+01
 
   4
   s   6
  0.304752488E+04  0.183473713E-02
  0.457369518E+03  0.140373228E-01
  0.103948685E+03  0.688426223E-01
  0.292101553E+02  0.232184443E+00
  0.928666296E+01  0.467941348E+00
  0.316392696E+01  0.362311985E+00
   s   3
  0.786827235E+01 -0.119332420E+00
  0.188128854E+01 -0.160854152E+00
  0.544249258E+00  0.114345644E+01
   s   1
  0.168714478E+00  0.100000000E+01
   p   3
  0.786827235E+01  0.689990666E-01
  0.188128854E+01  0.316423961E+00
  0.544249258E+00  0.744308291E+00
   p   1
  0.168714478E+00  0.100000000E+01
   d   1
  0.800000000E+00  0.100000000E+01
 
   5
   s   6
  0.304752488E+04  0.183473713E-02
  0.457369518E+03  0.140373228E-01
  0.103948685E+03  0.688426223E-01
  0.292101553E+02  0.232184443E+00
  0.928666296E+01  0.467941348E+00
  0.316392696E+01  0.362311985E+00
   s   3
  0.786827235E+01 -0.119332420E+00
  0.188128854E+01 -0.160854152E+00
  0.544249258E+00  0.114345644E+01
   s   1
  0.168714478E+00  0.100000000E+01
   p   3
  0.786827235E+01  0.689990666E-01
  0.188128854E+01  0.316423961E+00
  0.544249258E+00  0.744308291E+00
   p   1
  0.168714478E+00  0.100000000E+01
   d   1
  0.800000000E+00  0.100000000E+01
 
   6
   s   6
  0.304752488E+04  0.183473713E-02
  0.457369518E+03  0.140373228E-01
  0.103948685E+03  0.688426223E-01
  0.292101553E+02  0.232184443E+00
  0.928666296E+01  0.467941348E+00
  0.316392696E+01  0.362311985E+00
   s   3
  0.786827235E+01 -0.119332420E+00
  0.188128854E+01 -0.160854152E+00
  0.544249258E+00  0.114345644E+01
   s   1
  0.168714478E+00  0.100000000E+01
   p   3
  0.786827235E+01  0.689990666E-01
  0.188128854E+01  0.316423961E+00
  0.544249258E+00  0.744308291E+00
   p   1
  0.168714478E+00  0.100000000E+01
   d   1
  0.800000000E+00  0.100000000E+01
 
   7
   s   6
  0.548467166E+04  0.183107443E-02
  0.825234946E+03  0.139501722E-01
  0.188046958E+03  0.684450781E-01
  0.529645000E+02  0.232714336E+00
  0.168975704E+02  0.470192898E+00
  0.579963534E+01  0.358520853E+00
   s   3
  0.155396162E+02 -0.110777550E+00
  0.359993359E+01 -0.148026263E+00
  0.101376175E+01  0.113076702E+01
   s   1
  0.270005823E+00  0.100000000E+01
   p   3
  0.155396162E+02  0.708742682E-01
  0.359993359E+01  0.339752839E+00
  0.101376175E+01  0.727158577E+00
   p   1
  0.270005823E+00  0.100000000E+01
   d   1
  0.800000000E+00  0.100000000E+01
 
   8
   s   6
  0.548467166E+04  0.183107443E-02
  0.825234946E+03  0.139501722E-01
  0.188046958E+03  0.684450781E-01
  0.529645000E+02  0.232714336E+00
  0.168975704E+02  0.470192898E+00
  0.579963534E+01  0.358520853E+00
   s   3
  0.155396162E+02 -0.110777550E+00
  0.359993359E+01 -0.148026263E+00
  0.101376175E+01  0.113076702E+01
   s   1
  0.270005823E+00  0.100000000E+01
   p   3
  0.155396162E+02  0.708742682E-01
  0.359993359E+01  0.339752839E+00
  0.101376175E+01  0.727158577E+00
   p   1
  0.270005823E+00  0.100000000E+01
   d   1
  0.800000000E+00  0.100000000E+01
 
   9
   s   3
  0.187311370E+02  0.334946043E-01
  0.282539437E+01  0.234726954E+00
  0.640121692E+00  0.813757326E+00
   s   1
  0.161277759E+00  0.100000000E+01
   p   1
  0.110000000E+01  0.100000000E+01
 
  10
   s   3
  0.187311370E+02  0.334946043E-01
  0.282539437E+01  0.234726954E+00
  0.640121692E+00  0.813757326E+00
   s   1
  0.161277759E+00  0.100000000E+01
   p   1
  0.110000000E+01  0.100000000E+01
 
  11
   s   3
  0.187311370E+02  0.334946043E-01
  0.282539437E+01  0.234726954E+00
  0.640121692E+00  0.813757326E+00
   s   1
  0.161277759E+00  0.100000000E+01
   p   1
  0.110000000E+01  0.100000000E+01
 
  12
   s   6
  0.304752488E+04  0.183473713E-02
  0.457369518E+03  0.140373228E-01
  0.103948685E+03  0.688426223E-01
  0.292101553E+02  0.232184443E+00
  0.928666296E+01  0.467941348E+00
  0.316392696E+01  0.362311985E+00
   s   3
  0.786827235E+01 -0.119332420E+00
  0.188128854E+01 -0.160854152E+00
  0.544249258E+00  0.114345644E+01
   s   1
  0.168714478E+00  0.100000000E+01
   p   3
  0.786827235E+01  0.689990666E-01
  0.188128854E+01  0.316423961E+00
  0.544249258E+00  0.744308291E+00
   p   1
  0.168714478E+00  0.100000000E+01
   d   1
  0.800000000E+00  0.100000000E+01
 
  13
   s   3
  0.187311370E+02  0.334946043E-01
  0.282539437E+01  0.234726954E+00
  0.640121692E+00  0.813757326E+00
   s   1
  0.161277759E+00  0.100000000E+01
   p   1
  0.110000000E+01  0.100000000E+01
 
  14
   s   3
  0.187311370E+02  0.334946043E-01
  0.282539437E+01  0.234726954E+00
  0.640121692E+00  0.813757326E+00
   s   1
  0.161277759E+00  0.100000000E+01
   p   1
  0.110000000E+01  0.100000000E+01
 
  15
   s   3
  0.187311370E+02  0.334946043E-01
  0.282539437E+01  0.234726954E+00
  0.640121692E+00  0.813757326E+00
   s   1
  0.161277759E+00  0.100000000E+01
   p   1
  0.110000000E+01  0.100000000E+01
 
[MO]
Sym=     1a  
Ene=   -20.5980
Spin= Alpha
Occup=    1.00000
   1        -0.00001301
   2        -0.00006097
   3         0.00033973
   4         0.00000256
   5        -0.00003709
   6        -0.00000510
   7         0.00005757
   8         0.00016001
   9         0.00001811
  10        -0.00000470
  11         0.00000136
  12        -0.00006387
  13         0.00013639
  14         0.00001452
  15         0.00000276
  16        -0.00001344
  17         0.00043167
  18        -0.00101294
  19         0.00014064
  20        -0.00008676
  21        -0.00001891
  22         0.00055805
  23        -0.00034114
  24        -0.00007464
  25        -0.00072801
  26        -0.00028331
  27        -0.00004684
  28         0.00049991
  29         0.00010836
  30        -0.00006436
  31        -0.00001176
  32        -0.00005409
  33         0.00032166
  34         0.00003360
  35         0.00001419
  36         0.00000010
  37        -0.00015396
  38        -0.00012796
  39        -0.00000895
  40        -0.00009792
  41         0.00008941
  42        -0.00005758
  43         0.00009049
  44         0.00001438
  45         0.00001800
  46         0.00001424
  47         0.00006390
  48        -0.00024737
  49        -0.00002909
  50         0.00001533
  51         0.00000358
  52         0.00038252
  53         0.00037154
  54         0.00002914
  55         0.00002295
  56         0.00002606
  57         0.00002640
  58        -0.00003354
  59        -0.00000429
  60         0.00000179
  61        -0.00000426
  62        -0.00003027
  63         0.00068878
  64        -0.00000602
  65         0.00001127
  66         0.00000182
  67        -0.00031882
  68         0.00017202
  69         0.00003974
  70         0.00000892
  71        -0.00000374
  72        -0.00000140
  73        -0.00001843
  74        -0.00000310
  75         0.00000065
  76         0.00000847
  77         0.00005290
  78        -0.00047193
  79        -0.00002257
  80         0.00001992
  81         0.00000385
  82        -0.00014437
  83        -0.00037471
  84        -0.00004216
  85         0.00004133
  86        -0.00003194
  87         0.00001824
  88        -0.00001016
  89        -0.00000274
  90        -0.00000727
  91         0.99464563
  92         0.02109161
  93         0.00505371
  94         0.00144756
  95        -0.00088456
  96        -0.00019338
  97         0.00014503
  98        -0.00009153
  99        -0.00001975
 100        -0.00370023
 101        -0.00394932
 102        -0.00418517
 103        -0.00028534
 104        -0.00006781
 105         0.00005252
 106         0.00001860
 107         0.00006839
 108        -0.00043989
 109        -0.00000746
 110        -0.00000161
 111         0.00000018
 112         0.00008772
 113         0.00003402
 114        -0.00000013
 115         0.00003763
 116         0.00004200
 117         0.00004004
 118        -0.00000127
 119        -0.00000002
 120         0.00000038
 121        -0.00000567
 122        -0.00012483
 123         0.00000700
 124         0.00001020
 125         0.00000098
 126        -0.00003609
 127        -0.00002617
 128        -0.00001367
 129         0.00004766
 130         0.00000704
 131        -0.00004078
 132        -0.00001604
 133        -0.00004781
 134        -0.00000983
 135         0.00000117
 136         0.00000124
 137         0.00000719
 138         0.00006678
 139         0.00000020
 140         0.00000092
 141         0.00000011
 142        -0.00001346
 143         0.00000530
 144         0.00000146
 145        -0.00000277
 146         0.00000170
 147         0.00000243
 148         0.00000470
 149         0.00000095
 150        -0.00000037
 151         0.00000176
 152        -0.00000513
 153        -0.00000051
 154         0.00000093
 155        -0.00000115
 156         0.00000175
 157        -0.00000516
 158        -0.00000037
 159         0.00000059
 160         0.00000140
 161        -0.00000227
 162         0.00000409
 163        -0.00000211
 164        -0.00000010
 165         0.00000010
Sym=     1a  
Ene=   -20.5980
Spin= Beta
Occup=    1.00000
   1        -0.00001301
   2        -0.00006097
   3         0.00033973
   4         0.00000256
   5        -0.00003709
   6        -0.00000510
   7         0.00005757
   8         0.00016001
   9         0.00001811
  10        -0.00000470
  11         0.00000136
  12        -0.00006387
  13         0.00013639
  14         0.00001452
  15         0.00000276
  16        -0.00001344
  17         0.00043167
  18        -0.00101294
  19         0.00014064
  20        -0.00008676
  21        -0.00001891
  22         0.00055805
  23        -0.00034114
  24        -0.00007464
  25        -0.00072801
  26        -0.00028331
  27        -0.00004684
  28         0.00049991
  29         0.00010836
  30        -0.00006436
  31        -0.00001176
  32        -0.00005409
  33         0.00032166
  34         0.00003360
  35         0.00001419
  36         0.00000010
  37        -0.00015396
  38        -0.00012796
  39        -0.00000895
  40        -0.00009792
  41         0.00008941
  42        -0.00005758
  43         0.00009049
  44         0.00001438
  45         0.00001800
  46         0.00001424
  47         0.00006390
  48        -0.00024737
  49        -0.00002909
  50         0.00001533
  51         0.00000358
  52         0.00038252
  53         0.00037154
  54         0.00002914
  55         0.00002295
  56         0.00002606
  57         0.00002640
  58        -0.00003354
  59        -0.00000429
  60         0.00000179
  61        -0.00000426
  62        -0.00003027
  63         0.00068878
  64        -0.00000602
  65         0.00001127
  66         0.00000182
  67        -0.00031882
  68         0.00017202
  69         0.00003974
  70         0.00000892
  71        -0.00000374
  72        -0.00000140
  73        -0.00001843
  74        -0.00000310
  75         0.00000065
  76         0.00000847
  77         0.00005290
  78        -0.00047193
  79        -0.00002257
  80         0.00001992
  81         0.00000385
  82        -0.00014437
  83        -0.00037471
  84        -0.00004216
  85         0.00004133
  86        -0.00003194
  87         0.00001824
  88        -0.00001016
  89        -0.00000274
  90        -0.00000727
  91         0.99464563
  92         0.02109161
  93         0.00505371
  94         0.00144756
  95        -0.00088456
  96        -0.00019338
  97         0.00014503
  98        -0.00009153
  99        -0.00001975
 100        -0.00370023
 101        -0.00394932
 102        -0.00418517
 103        -0.00028534
 104        -0.00006781
 105         0.00005252
 106         0.00001860
 107         0.00006839
 108        -0.00043989
 109        -0.00000746
 110        -0.00000161
 111         0.00000018
 112         0.00008772
 113         0.00003402
 114        -0.00000013
 115         0.00003763
 116         0.00004200
 117         0.00004004
 118        -0.00000127
 119        -0.00000002
 120         0.00000038
 121        -0.00000567
 122        -0.00012483
 123         0.00000700
 124         0.00001020
 125         0.00000098
 126        -0.00003609
 127        -0.00002617
 128        -0.00001367
 129         0.00004766
 130         0.00000704
 131        -0.00004078
 132        -0.00001604
 133        -0.00004781
 134        -0.00000983
 135         0.00000117
 136         0.00000124
 137         0.00000719
 138         0.00006678
 139         0.00000020
 140         0.00000092
 141         0.00000011
 142        -0.00001346
 143         0.00000530
 144         0.00000146
 145        -0.00000277
 146         0.00000170
 147         0.00000243
 148         0.00000470
 149         0.00000095
 150        -0.00000037
 151         0.00000176
 152        -0.00000513
 153        -0.00000051
 154         0.00000093
 155        -0.00000115
 156         0.00000175
 157        -0.00000516
 158        -0.00000037
 159         0.00000059
 160         0.00000140
 161        -0.00000227
 162         0.00000409
 163        -0.00000211
 164        -0.00000010
 165         0.00000010
Sym=     2a  
Ene=   -20.5770
Spin= Alpha
Occup=    1.00000
   1        -0.00000132
   2        -0.00000321
   3         0.00019164
   4         0.00000431
   5         0.00000537
   6         0.00000049
   7         0.00000004
   8         0.00007161
   9         0.00000946
  10        -0.00000273
  11        -0.00001136
  12         0.00000531
  13         0.00001795
  14         0.00000291
  15        -0.00000359
  16         0.00001245
  17         0.00005283
  18         0.00001949
  19         0.00003150
  20         0.00001576
  21         0.00000044
  22        -0.00020905
  23         0.00030846
  24         0.00005199
  25         0.00002690
  26         0.00002803
  27         0.00002178
  28         0.00003334
  29         0.00000415
  30        -0.00000083
  31        -0.00001110
  32        -0.00004669
  33         0.00020991
  34        -0.00004887
  35         0.00001812
  36         0.00000499
  37         0.00026788
  38        -0.00001827
  39        -0.00001661
  40        -0.00010245
  41         0.00007047
  42        -0.00005526
  43        -0.00006063
  44        -0.00000537
  45         0.00002295
  46        -0.00001411
  47         0.00040381
  48        -0.00078742
  49        -0.00014711
  50        -0.00008391
  51        -0.00000336
  52        -0.00066759
  53        -0.00067404
  54        -0.00005423
  55        -0.00069094
  56        -0.00027615
  57        -0.00004626
  58        -0.00046347
  59        -0.00002214
  60        -0.00001076
  61        -0.00000192
  62        -0.00000993
  63        -0.00018392
  64        -0.00002145
  65        -0.00001538
  66        -0.00000091
  67         0.00022134
  68        -0.00008497
  69        -0.00002311
  70        -0.00000884
  71         0.00000202
  72        -0.00001918
  73        -0.00009010
  74        -0.00001271
  75         0.00000827
  76         0.00000212
  77         0.00002771
  78         0.00008905
  79         0.00002246
  80         0.00000839
  81        -0.00000007
  82         0.00001482
  83        -0.00000801
  84        -0.00000183
  85         0.00003436
  86        -0.00003604
  87         0.00000326
  88        -0.00000982
  89        -0.00000318
  90        -0.00000559
  91         0.00000922
  92         0.00006116
  93        -0.00037813
  94         0.00000685
  95        -0.00000190
  96        -0.00000060
  97        -0.00008721
  98         0.00002995
  99         0.00000853
 100         0.00003217
 101         0.00003656
 102         0.00003687
 103         0.00000333
 104         0.00000073
 105        -0.00000023
 106         0.99463359
 107         0.02106144
 108         0.00525955
 109        -0.00142405
 110        -0.00084440
 111        -0.00003678
 112        -0.00017327
 113        -0.00009503
 114        -0.00000345
 115        -0.00373883
 116        -0.00397378
 117        -0.00423622
 118         0.00027697
 119         0.00000620
 120         0.00002603
 121         0.00000791
 122        -0.00000897
 123        -0.00000037
 124         0.00001213
 125         0.00000163
 126        -0.00004131
 127        -0.00004080
 128         0.00000447
 129         0.00003943
 130         0.00000499
 131        -0.00000991
 132        -0.00000496
 133        -0.00000318
 134        -0.00000449
 135        -0.00000043
 136         0.00000351
 137         0.00001920
 138        -0.00011111
 139         0.00001828
 140         0.00001297
 141         0.00000074
 142         0.00003484
 143        -0.00014519
 144        -0.00002099
 145        -0.00001753
 146         0.00001434
 147         0.00000574
 148         0.00001030
 149         0.00000282
 150         0.00000076
 151         0.00002353
 152        -0.00001000
 153         0.00000259
 154         0.00001118
 155         0.00000188
 156         0.00002356
 157        -0.00001027
 158         0.00000256
 159         0.00001131
 160         0.00000085
 161        -0.00001278
 162        -0.00007362
 163        -0.00000433
 164        -0.00000830
 165        -0.00000087
Sym=     2a  
Ene=   -20.5770
Spin= Beta
Occup=    1.00000
   1        -0.00000132
   2        -0.00000321
   3         0.00019164
   4         0.00000431
   5         0.00000537
   6         0.00000049
   7         0.00000004
   8         0.00007161
   9         0.00000946
  10        -0.00000273
  11        -0.00001136
  12         0.00000531
  13         0.00001795
  14         0.00000291
  15        -0.00000359
  16         0.00001245
  17         0.00005283
  18         0.00001949
  19         0.00003150
  20         0.00001576
  21         0.00000044
  22        -0.00020905
  23         0.00030846
  24         0.00005199
  25         0.00002690
  26         0.00002803
  27         0.00002178
  28         0.00003334
  29         0.00000415
  30        -0.00000083
  31        -0.00001110
  32        -0.00004669
  33         0.00020991
  34        -0.00004887
  35         0.00001812
  36         0.00000499
  37         0.00026788
  38        -0.00001827
  39        -0.00001661
  40        -0.00010245
  41         0.00007047
  42        -0.00005526
  43        -0.00006063
  44        -0.00000537
  45         0.00002295
  46        -0.00001411
  47         0.00040381
  48        -0.00078742
  49        -0.00014711
  50        -0.00008391
  51        -0.00000336
  52        -0.00066759
  53        -0.00067404
  54        -0.00005423
  55        -0.00069094
  56        -0.00027615
  57        -0.00004626
  58        -0.00046347
  59        -0.00002214
  60        -0.00001076
  61        -0.00000192
  62        -0.00000993
  63        -0.00018392
  64        -0.00002145
  65        -0.00001538
  66        -0.00000091
  67         0.00022134
  68        -0.00008497
  69        -0.00002311
  70        -0.00000884
  71         0.00000202
  72        -0.00001918
  73        -0.00009010
  74        -0.00001271
  75         0.00000827
  76         0.00000212
  77         0.00002771
  78         0.00008905
  79         0.00002246
  80         0.00000839
  81        -0.00000007
  82         0.00001482
  83        -0.00000801
  84        -0.00000183
  85         0.00003436
  86        -0.00003604
  87         0.00000326
  88        -0.00000982
  89        -0.00000318
  90        -0.00000559
  91         0.00000922
  92         0.00006116
  93        -0.00037813
  94         0.00000685
  95        -0.00000190
  96        -0.00000060
  97        -0.00008721
  98         0.00002995
  99         0.00000853
 100         0.00003217
 101         0.00003656
 102         0.00003687
 103         0.00000333
 104         0.00000073
 105        -0.00000023
 106         0.99463359
 107         0.02106144
 108         0.00525955
 109        -0.00142405
 110        -0.00084440
 111        -0.00003678
 112        -0.00017327
 113        -0.00009503
 114        -0.00000345
 115        -0.00373883
 116        -0.00397378
 117        -0.00423622
 118         0.00027697
 119         0.00000620
 120         0.00002603
 121         0.00000791
 122        -0.00000897
 123        -0.00000037
 124         0.00001213
 125         0.00000163
 126        -0.00004131
 127        -0.00004080
 128         0.00000447
 129         0.00003943
 130         0.00000499
 131        -0.00000991
 132        -0.00000496
 133        -0.00000318
 134        -0.00000449
 135        -0.00000043
 136         0.00000351
 137         0.00001920
 138        -0.00011111
 139         0.00001828
 140         0.00001297
 141         0.00000074
 142         0.00003484
 143        -0.00014519
 144        -0.00002099
 145        -0.00001753
 146         0.00001434
 147         0.00000574
 148         0.00001030
 149         0.00000282
 150         0.00000076
 151         0.00002353
 152        -0.00001000
 153         0.00000259
 154         0.00001118
 155         0.00000188
 156         0.00002356
 157        -0.00001027
 158         0.00000256
 159         0.00001131
 160         0.00000085
 161        -0.00001278
 162        -0.00007362
 163        -0.00000433
 164        -0.00000830
 165        -0.00000087
Sym=     3a  
Ene=   -15.6340
Spin= Alpha
Occup=    1.00000
   1         0.99498605
   2         0.02554216
   3        -0.00498316
   4         0.00003322
   5         0.00013736
   6         0.00001444
   7        -0.00124138
   8        -0.00107415
   9        -0.00007602
  10        -0.00328518
  11        -0.00335905
  12        -0.00333102
  13         0.00006640
  14         0.00000627
  15        -0.00000789
  16         0.00001704
  17         0.00021296
  18         0.00179397
  19         0.00002256
  20        -0.00025331
  21        -0.00003502
  22         0.00065155
  23        -0.00213530
  24        -0.00031774
  25        -0.00004448
  26        -0.00016962
  27        -0.00006310
  28        -0.00002871
  29        -0.00000482
  30        -0.00001498
  31        -0.00098387
  32        -0.00000592
  33        -0.00074278
  34         0.00005319
  35         0.00000369
  36        -0.00000237
  37        -0.00047069
  38         0.00073451
  39         0.00012241
  40         0.00006541
  41         0.00004578
  42        -0.00000676
  43        -0.00001241
  44        -0.00000608
  45         0.00000887
  46        -0.00000364
  47        -0.00003834
  48         0.00146515
  49        -0.00002917
  50         0.00000267
  51         0.00000187
  52        -0.00072233
  53        -0.00064193
  54        -0.00004690
  55         0.00000827
  56         0.00002458
  57        -0.00000940
  58         0.00000280
  59        -0.00000075
  60         0.00000517
  61         0.00002770
  62         0.00013596
  63        -0.00216842
  64         0.00001058
  65         0.00003992
  66         0.00000463
  67         0.00141991
  68        -0.00102539
  69        -0.00021152
  70        -0.00002745
  71         0.00003336
  72         0.00003034
  73         0.00000999
  74         0.00000486
  75        -0.00000010
  76         0.00000997
  77         0.00014276
  78         0.00281710
  79        -0.00018524
  80         0.00010201
  81         0.00002315
  82        -0.00026319
  83         0.00188992
  84         0.00026493
  85        -0.00011136
  86        -0.00001391
  87        -0.00008308
  88         0.00004110
  89         0.00000720
  90         0.00000851
  91        -0.00002833
  92        -0.00016854
  93         0.00101460
  94        -0.00004533
  95        -0.00001351
  96         0.00000048
  97         0.00033941
  98         0.00021646
  99         0.00001084
 100        -0.00002514
 101        -0.00014760
 102        -0.00012431
 103         0.00004321
 104        -0.00000024
 105        -0.00000593
 106        -0.00001491
 107        -0.00006349
 108         0.00042587
 109         0.00001359
 110        -0.00000862
 111        -0.00000183
 112        -0.00007389
 113         0.00002137
 114         0.00000672
 115        -0.00003447
 116        -0.00004815
 117        -0.00004489
 118        -0.00001174
 119        -0.00000220
 120         0.00000015
 121         0.00001274
 122         0.00045452
 123         0.00004720
 124        -0.00003503
 125        -0.00000714
 126        -0.00010367
 127        -0.00000231
 128         0.00000790
 129        -0.00000087
 130        -0.00000055
 131         0.00010386
 132        -0.00000970
 133        -0.00013387
 134        -0.00006995
 135        -0.00000246
 136        -0.00000566
 137        -0.00000358
 138        -0.00056545
 139         0.00003193
 140        -0.00000956
 141        -0.00000297
 142         0.00013055
 143        -0.00007510
 144        -0.00001722
 145        -0.00001695
 146        -0.00001288
 147        -0.00002503
 148        -0.00000855
 149        -0.00000165
 150         0.00000235
 151         0.00001087
 152         0.00001425
 153         0.00000482
 154        -0.00000614
 155         0.00000809
 156         0.00001092
 157         0.00001444
 158         0.00000386
 159        -0.00000379
 160        -0.00000987
 161        -0.00000270
 162         0.00005593
 163         0.00000282
 164         0.00000706
 165         0.00000080
Sym=     3a  
Ene=   -15.6340
Spin= Beta
Occup=    1.00000
   1         0.99498605
   2         0.02554216
   3        -0.00498316
   4         0.00003322
   5         0.00013736
   6         0.00001444
   7        -0.00124138
   8        -0.00107415
   9        -0.00007602
  10        -0.00328518
  11        -0.00335905
  12        -0.00333102
  13         0.00006640
  14         0.00000627
  15        -0.00000789
  16         0.00001704
  17         0.00021296
  18         0.00179397
  19         0.00002256
  20        -0.00025331
  21        -0.00003502
  22         0.00065155
  23        -0.00213530
  24        -0.00031774
  25        -0.00004448
  26        -0.00016962
  27        -0.00006310
  28        -0.00002871
  29        -0.00000482
  30        -0.00001498
  31        -0.00098387
  32        -0.00000592
  33        -0.00074278
  34         0.00005319
  35         0.00000369
  36        -0.00000237
  37        -0.00047069
  38         0.00073451
  39         0.00012241
  40         0.00006541
  41         0.00004578
  42        -0.00000676
  43        -0.00001241
  44        -0.00000608
  45         0.00000887
  46        -0.00000364
  47        -0.00003834
  48         0.00146515
  49        -0.00002917
  50         0.00000267
  51         0.00000187
  52        -0.00072233
  53        -0.00064193
  54        -0.00004690
  55         0.00000827
  56         0.00002458
  57        -0.00000940
  58         0.00000280
  59        -0.00000075
  60         0.00000517
  61         0.00002770
  62         0.00013596
  63        -0.00216842
  64         0.00001058
  65         0.00003992
  66         0.00000463
  67         0.00141991
  68        -0.00102539
  69        -0.00021152
  70        -0.00002745