[Molden Format]
[N_Atoms]
                   15
[Atoms] (AU)
N1          1      7          -2.25073627     -1.78532214     -0.19001512
C2          2      6          -2.30735247      0.77542883      0.15241974
N3          3      7           0.04247329      1.86327992      0.17340122
C4          4      6           2.35985685      0.67301693     -0.10770249
C5          5      6           2.22680123     -2.08084290     -0.46668797
C6          6      6          -0.05008421     -3.14352927     -0.48732350
O7          7      8          -4.22116733      1.94532891      0.40812879
O8          8      8           4.27588430      1.86737714     -0.05048739
H9          9      1          -0.31083143     -5.13998224     -0.73916935
H10        10      1           0.07959786      3.73120340      0.41925840
H11        11      1          -3.92412509     -2.63678785     -0.21608450
C12        12      6           4.66563032     -3.49802884     -0.78510200
H13        13      1           5.69867033     -2.80979234     -2.41505369
H14        14      1           5.87365958     -3.24184559      0.84969524
H15        15      1           4.31717751     -5.50177648     -1.03165163
[Charge] (Mulliken)
 -0.78661029463683008     
   1.0174920441364419     
 -0.83139720805425643     
  0.82642588524808946     
 -0.21736267172162904     
  0.20302784297229692     
 -0.60232636254807126     
 -0.58235286841392764     
  0.18896597030627771     
  0.34688770917419087     
  0.34084519448079709     
 -0.31193064712588736     
  0.14763109918533701     
  0.14767024956149577     
  0.11303405743257766     
[GTO] (AU)
   1
   s   6
  0.417351146E+04  0.183477216E-02
  0.627457911E+03  0.139946270E-01
  0.142902093E+03  0.685865518E-01
  0.402343293E+02  0.232240873E+00
  0.128202129E+02  0.469069948E+00
  0.439043701E+01  0.360455199E+00
   s   3
  0.116263619E+02 -0.114961182E+00
  0.271627981E+01 -0.169117479E+00
  0.772218397E+00  0.114585195E+01
   s   1
  0.212031497E+00  0.100000000E+01
   p   3
  0.116263619E+02  0.675797439E-01
  0.271627981E+01  0.323907296E+00
  0.772218397E+00  0.740895140E+00
   p   1
  0.212031497E+00  0.100000000E+01
   d   1
  0.800000000E+00  0.100000000E+01
 
   2
   s   6
  0.304752488E+04  0.183473713E-02
  0.457369518E+03  0.140373228E-01
  0.103948685E+03  0.688426223E-01
  0.292101553E+02  0.232184443E+00
  0.928666296E+01  0.467941348E+00
  0.316392696E+01  0.362311985E+00
   s   3
  0.786827235E+01 -0.119332420E+00
  0.188128854E+01 -0.160854152E+00
  0.544249258E+00  0.114345644E+01
   s   1
  0.168714478E+00  0.100000000E+01
   p   3
  0.786827235E+01  0.689990666E-01
  0.188128854E+01  0.316423961E+00
  0.544249258E+00  0.744308291E+00
   p   1
  0.168714478E+00  0.100000000E+01
   d   1
  0.800000000E+00  0.100000000E+01
 
   3
   s   6
  0.417351146E+04  0.183477216E-02
  0.627457911E+03  0.139946270E-01
  0.142902093E+03  0.685865518E-01
  0.402343293E+02  0.232240873E+00
  0.128202129E+02  0.469069948E+00
  0.439043701E+01  0.360455199E+00
   s   3
  0.116263619E+02 -0.114961182E+00
  0.271627981E+01 -0.169117479E+00
  0.772218397E+00  0.114585195E+01
   s   1
  0.212031497E+00  0.100000000E+01
   p   3
  0.116263619E+02  0.675797439E-01
  0.271627981E+01  0.323907296E+00
  0.772218397E+00  0.740895140E+00
   p   1
  0.212031497E+00  0.100000000E+01
   d   1
  0.800000000E+00  0.100000000E+01
 
   4
   s   6
  0.304752488E+04  0.183473713E-02
  0.457369518E+03  0.140373228E-01
  0.103948685E+03  0.688426223E-01
  0.292101553E+02  0.232184443E+00
  0.928666296E+01  0.467941348E+00
  0.316392696E+01  0.362311985E+00
   s   3
  0.786827235E+01 -0.119332420E+00
  0.188128854E+01 -0.160854152E+00
  0.544249258E+00  0.114345644E+01
   s   1
  0.168714478E+00  0.100000000E+01
   p   3
  0.786827235E+01  0.689990666E-01
  0.188128854E+01  0.316423961E+00
  0.544249258E+00  0.744308291E+00
   p   1
  0.168714478E+00  0.100000000E+01
   d   1
  0.800000000E+00  0.100000000E+01
 
   5
   s   6
  0.304752488E+04  0.183473713E-02
  0.457369518E+03  0.140373228E-01
  0.103948685E+03  0.688426223E-01
  0.292101553E+02  0.232184443E+00
  0.928666296E+01  0.467941348E+00
  0.316392696E+01  0.362311985E+00
   s   3
  0.786827235E+01 -0.119332420E+00
  0.188128854E+01 -0.160854152E+00
  0.544249258E+00  0.114345644E+01
   s   1
  0.168714478E+00  0.100000000E+01
   p   3
  0.786827235E+01  0.689990666E-01
  0.188128854E+01  0.316423961E+00
  0.544249258E+00  0.744308291E+00
   p   1
  0.168714478E+00  0.100000000E+01
   d   1
  0.800000000E+00  0.100000000E+01
 
   6
   s   6
  0.304752488E+04  0.183473713E-02
  0.457369518E+03  0.140373228E-01
  0.103948685E+03  0.688426223E-01
  0.292101553E+02  0.232184443E+00
  0.928666296E+01  0.467941348E+00
  0.316392696E+01  0.362311985E+00
   s   3
  0.786827235E+01 -0.119332420E+00
  0.188128854E+01 -0.160854152E+00
  0.544249258E+00  0.114345644E+01
   s   1
  0.168714478E+00  0.100000000E+01
   p   3
  0.786827235E+01  0.689990666E-01
  0.188128854E+01  0.316423961E+00
  0.544249258E+00  0.744308291E+00
   p   1
  0.168714478E+00  0.100000000E+01
   d   1
  0.800000000E+00  0.100000000E+01
 
   7
   s   6
  0.548467166E+04  0.183107443E-02
  0.825234946E+03  0.139501722E-01
  0.188046958E+03  0.684450781E-01
  0.529645000E+02  0.232714336E+00
  0.168975704E+02  0.470192898E+00
  0.579963534E+01  0.358520853E+00
   s   3
  0.155396162E+02 -0.110777550E+00
  0.359993359E+01 -0.148026263E+00
  0.101376175E+01  0.113076702E+01
   s   1
  0.270005823E+00  0.100000000E+01
   p   3
  0.155396162E+02  0.708742682E-01
  0.359993359E+01  0.339752839E+00
  0.101376175E+01  0.727158577E+00
   p   1
  0.270005823E+00  0.100000000E+01
   d   1
  0.800000000E+00  0.100000000E+01
 
   8
   s   6
  0.548467166E+04  0.183107443E-02
  0.825234946E+03  0.139501722E-01
  0.188046958E+03  0.684450781E-01
  0.529645000E+02  0.232714336E+00
  0.168975704E+02  0.470192898E+00
  0.579963534E+01  0.358520853E+00
   s   3
  0.155396162E+02 -0.110777550E+00
  0.359993359E+01 -0.148026263E+00
  0.101376175E+01  0.113076702E+01
   s   1
  0.270005823E+00  0.100000000E+01
   p   3
  0.155396162E+02  0.708742682E-01
  0.359993359E+01  0.339752839E+00
  0.101376175E+01  0.727158577E+00
   p   1
  0.270005823E+00  0.100000000E+01
   d   1
  0.800000000E+00  0.100000000E+01
 
   9
   s   3
  0.187311370E+02  0.334946043E-01
  0.282539437E+01  0.234726954E+00
  0.640121692E+00  0.813757326E+00
   s   1
  0.161277759E+00  0.100000000E+01
   p   1
  0.110000000E+01  0.100000000E+01
 
  10
   s   3
  0.187311370E+02  0.334946043E-01
  0.282539437E+01  0.234726954E+00
  0.640121692E+00  0.813757326E+00
   s   1
  0.161277759E+00  0.100000000E+01
   p   1
  0.110000000E+01  0.100000000E+01
 
  11
   s   3
  0.187311370E+02  0.334946043E-01
  0.282539437E+01  0.234726954E+00
  0.640121692E+00  0.813757326E+00
   s   1
  0.161277759E+00  0.100000000E+01
   p   1
  0.110000000E+01  0.100000000E+01
 
  12
   s   6
  0.304752488E+04  0.183473713E-02
  0.457369518E+03  0.140373228E-01
  0.103948685E+03  0.688426223E-01
  0.292101553E+02  0.232184443E+00
  0.928666296E+01  0.467941348E+00
  0.316392696E+01  0.362311985E+00
   s   3
  0.786827235E+01 -0.119332420E+00
  0.188128854E+01 -0.160854152E+00
  0.544249258E+00  0.114345644E+01
   s   1
  0.168714478E+00  0.100000000E+01
   p   3
  0.786827235E+01  0.689990666E-01
  0.188128854E+01  0.316423961E+00
  0.544249258E+00  0.744308291E+00
   p   1
  0.168714478E+00  0.100000000E+01
   d   1
  0.800000000E+00  0.100000000E+01
 
  13
   s   3
  0.187311370E+02  0.334946043E-01
  0.282539437E+01  0.234726954E+00
  0.640121692E+00  0.813757326E+00
   s   1
  0.161277759E+00  0.100000000E+01
   p   1
  0.110000000E+01  0.100000000E+01
 
  14
   s   3
  0.187311370E+02  0.334946043E-01
  0.282539437E+01  0.234726954E+00
  0.640121692E+00  0.813757326E+00
   s   1
  0.161277759E+00  0.100000000E+01
   p   1
  0.110000000E+01  0.100000000E+01
 
  15
   s   3
  0.187311370E+02  0.334946043E-01
  0.282539437E+01  0.234726954E+00
  0.640121692E+00  0.813757326E+00
   s   1
  0.161277759E+00  0.100000000E+01
   p   1
  0.110000000E+01  0.100000000E+01
 
[MO]
Sym=     1a  
Ene=   -20.5450
Spin= Alpha
Occup=    2.00000
   1        -0.00000129
   2        -0.00000372
   3         0.00018834
   4         0.00000390
   5         0.00000478
   6         0.00000043
   7         0.00000273
   8         0.00007543
   9         0.00000983
  10        -0.00000355
  11        -0.00001103
  12         0.00000507
  13         0.00001750
  14         0.00000289
  15        -0.00000348
  16         0.00001126
  17         0.00005035
  18        -0.00000068
  19         0.00002959
  20         0.00001521
  21         0.00000047
  22        -0.00021111
  23         0.00029779
  24         0.00005067
  25         0.00002325
  26         0.00002543
  27         0.00002001
  28         0.00003354
  29         0.00000429
  30        -0.00000097
  31        -0.00001155
  32        -0.00005019
  33         0.00024592
  34        -0.00004915
  35         0.00001939
  36         0.00000518
  37         0.00024839
  38        -0.00004587
  39        -0.00001924
  40        -0.00010176
  41         0.00007270
  42        -0.00005776
  43        -0.00006094
  44        -0.00000561
  45         0.00002371
  46        -0.00001112
  47         0.00041266
  48        -0.00068501
  49        -0.00014107
  50        -0.00008090
  51        -0.00000327
  52        -0.00054155
  53        -0.00063203
  54        -0.00005532
  55        -0.00069451
  56        -0.00028026
  57        -0.00003236
  58        -0.00046238
  59        -0.00002090
  60        -0.00001364
  61        -0.00000168
  62        -0.00001025
  63        -0.00016066
  64        -0.00001902
  65        -0.00001442
  66        -0.00000090
  67         0.00013896
  68        -0.00009640
  69        -0.00002025
  70        -0.00000708
  71         0.00000239
  72        -0.00001834
  73        -0.00009199
  74        -0.00001302
  75         0.00000830
  76         0.00000199
  77         0.00002781
  78         0.00003084
  79         0.00002072
  80         0.00000645
  81        -0.00000024
  82        -0.00001064
  83        -0.00001379
  84        -0.00000125
  85         0.00003387
  86        -0.00003666
  87         0.00000217
  88        -0.00001035
  89        -0.00000329
  90        -0.00000549
  91         0.00001356
  92         0.00005939
  93        -0.00036508
  94         0.00000603
  95        -0.00000358
  96        -0.00000079
  97        -0.00008330
  98         0.00002801
  99         0.00000807
 100         0.00003177
 101         0.00003540
 102         0.00003573
 103         0.00000243
 104         0.00000056
 105        -0.00000018
 106         0.99465303
 107         0.02103840
 108         0.00504082
 109        -0.00143549
 110        -0.00086218
 111        -0.00003854
 112        -0.00014276
 113        -0.00005842
 114        -0.00000019
 115        -0.00368546
 116        -0.00388372
 117        -0.00420794
 118         0.00022976
 119        -0.00000171
 120         0.00003827
 121         0.00000971
 122        -0.00000635
 123         0.00000040
 124         0.00001249
 125         0.00000164
 126        -0.00003841
 127        -0.00003429
 128         0.00000515
 129         0.00004016
 130         0.00000505
 131        -0.00000856
 132        -0.00000489
 133        -0.00000297
 134        -0.00000440
 135        -0.00000043
 136         0.00000340
 137         0.00001841
 138        -0.00007417
 139         0.00001712
 140         0.00001473
 141         0.00000103
 142         0.00002512
 143        -0.00013637
 144        -0.00001930
 145        -0.00001810
 146         0.00001459
 147         0.00000613
 148         0.00000949
 149         0.00000277
 150         0.00000078
 151         0.00002269
 152        -0.00001198
 153         0.00000239
 154         0.00001116
 155         0.00000161
 156         0.00002272
 157        -0.00001225
 158         0.00000239
 159         0.00001121
 160         0.00000112
 161        -0.00001386
 162        -0.00007446
 163        -0.00000408
 164        -0.00000855
 165        -0.00000092
Sym=     2a  
Ene=   -20.5420
Spin= Alpha
Occup=    2.00000
   1        -0.00001303
   2        -0.00006254
   3         0.00035077
   4         0.00000133
   5        -0.00003721
   6        -0.00000501
   7         0.00008583
   8         0.00015180
   9         0.00001556
  10        -0.00000300
  11         0.00000116
  12        -0.00006532
  13         0.00013862
  14         0.00001462
  15         0.00000283
  16        -0.00001036
  17         0.00044551
  18        -0.00093910
  19         0.00013414
  20        -0.00008383
  21        -0.00001815
  22         0.00047517
  23        -0.00030210
  24        -0.00006509
  25        -0.00073274
  26        -0.00028551
  27        -0.00003848
  28         0.00050229
  29         0.00010949
  30        -0.00006614
  31        -0.00001234
  32        -0.00005643
  33         0.00034718
  34         0.00003388
  35         0.00001511
  36         0.00000023
  37        -0.00013950
  38        -0.00015041
  39        -0.00001267
  40        -0.00009929
  41         0.00009145
  42        -0.00005967
  43         0.00009116
  44         0.00001442
  45         0.00001861
  46         0.00001355
  47         0.00006233
  48        -0.00026457
  49        -0.00002764
  50         0.00001493
  51         0.00000346
  52         0.00038597
  53         0.00036538
  54         0.00002813
  55         0.00002059
  56         0.00002452
  57         0.00002522
  58        -0.00003408
  59        -0.00000429
  60         0.00000177
  61        -0.00000439
  62        -0.00003136
  63         0.00068676
  64        -0.00000536
  65         0.00001039
  66         0.00000167
  67        -0.00032482
  68         0.00017723
  69         0.00004075
  70         0.00000868
  71        -0.00000376
  72        -0.00000180
  73        -0.00001801
  74        -0.00000305
  75         0.00000069
  76         0.00000775
  77         0.00005114
  78        -0.00048415
  79        -0.00002133
  80         0.00001834
  81         0.00000358
  82        -0.00013566
  83        -0.00037403
  84        -0.00004253
  85         0.00004008
  86        -0.00003380
  87         0.00001687
  88        -0.00000993
  89        -0.00000271
  90        -0.00000736
  91         0.99465499
  92         0.02109179
  93         0.00489554
  94         0.00146577
  95        -0.00090278
  96        -0.00019675
  97         0.00011531
  98        -0.00006738
  99        -0.00001497
 100        -0.00366676
 101        -0.00388044
 102        -0.00415325
 103        -0.00023952
 104        -0.00006185
 105         0.00005577
 106         0.00001367
 107         0.00006737
 108        -0.00043243
 109        -0.00000683
 110        -0.00000329
 111        -0.00000008
 112         0.00008556
 113         0.00003221
 114        -0.00000026
 115         0.00003743
 116         0.00004146
 117         0.00003947
 118        -0.00000053
 119         0.00000005
 120         0.00000034
 121        -0.00000474
 122        -0.00012203
 123         0.00000694
 124         0.00001078
 125         0.00000106
 126        -0.00003425
 127        -0.00002171
 128        -0.00001406
 129         0.00004847
 130         0.00000717
 131        -0.00003883
 132        -0.00001169
 133        -0.00004886
 134        -0.00000999
 135         0.00000120
 136         0.00000123
 137         0.00000691
 138         0.00007199
 139        -0.00000015
 140         0.00000115
 141         0.00000016
 142        -0.00001550
 143         0.00000544
 144         0.00000158
 145        -0.00000252
 146         0.00000178
 147         0.00000251
 148         0.00000459
 149         0.00000092
 150        -0.00000037
 151         0.00000162
 152        -0.00000500
 153        -0.00000050
 154         0.00000098
 155        -0.00000114
 156         0.00000161
 157        -0.00000503
 158        -0.00000037
 159         0.00000065
 160         0.00000140
 161        -0.00000236
 162         0.00000295
 163        -0.00000208
 164        -0.00000018
 165         0.00000009
Sym=     3a  
Ene=   -15.6340
Spin= Alpha
Occup=    2.00000
   1         0.99495685
   2         0.02563701
   3        -0.00488553
   4         0.00016739
   5         0.00006224
   6        -0.00000219
   7        -0.00137057
   8        -0.00092497
   9        -0.00004902
  10        -0.00335135
  11        -0.00340793
  12        -0.00333134
  13         0.00005258
  14         0.00000849
  15        -0.00001476
  16         0.00001914
  17         0.00020029
  18         0.00175695
  19         0.00002460
  20        -0.00026018
  21        -0.00003582
  22         0.00079136
  23        -0.00201593
  24        -0.00030920
  25        -0.00004654
  26        -0.00013824
  27        -0.00006184
  28        -0.00003483
  29        -0.00000547
  30        -0.00000998
  31        -0.00077300
  32         0.00000501
  33        -0.00083228
  34         0.00005268
  35         0.00000542
  36        -0.00000207
  37        -0.00037266
  38         0.00074296
  39         0.00011840
  40         0.00006633
  41         0.00004711
  42        -0.00000264
  43        -0.00001369
  44        -0.00000606
  45         0.00000849
  46        -0.00000466
  47        -0.00003763
  48         0.00145334
  49        -0.00003040
  50         0.00000359
  51         0.00000207
  52        -0.00067966
  53        -0.00069001
  54        -0.00005557
  55         0.00000721
  56         0.00002199
  57        -0.00001041
  58         0.00000366
  59        -0.00000064
  60         0.00000487
  61         0.00002687
  62         0.00013457
  63        -0.00211812
  64         0.00001284
  65         0.00004035
  66         0.00000467
  67         0.00134061
  68        -0.00107090
  69        -0.00021330
  70        -0.00002715
  71         0.00003718
  72         0.00002734
  73         0.00001311
  74         0.00000506
  75         0.00000079
  76         0.00001295
  77         0.00017324
  78         0.00282397
  79        -0.00018634
  80         0.00010247
  81         0.00002348
  82        -0.00037366
  83         0.00185767
  84         0.00026660
  85        -0.00013341
  86        -0.00001835
  87        -0.00008487
  88         0.00005540
  89         0.00001035
  90         0.00000733
  91        -0.00002836
  92        -0.00016936
  93         0.00105300
  94        -0.00003059
  95         0.00000727
  96         0.00000259
  97         0.00033414
  98         0.00020876
  99         0.00001016
 100        -0.00003272
 101        -0.00014802
 102        -0.00012152
 103         0.00004283
 104         0.00000035
 105        -0.00000642
 106        -0.00001486
 107        -0.00006362
 108         0.00042295
 109         0.00001204
 110        -0.00000430
 111        -0.00000120
 112        -0.00007954
 113         0.00003127
 114         0.00000831
 115        -0.00003344
 116        -0.00004916
 117        -0.00004435
 118        -0.00001201
 119        -0.00000226
 120        -0.00000008
 121         0.00000504
 122         0.00043270
 123         0.00005130
 124        -0.00003808
 125        -0.00000776
 126        -0.00010011
 127        -0.00000310
 128         0.00000499
 129        -0.00000106
 130        -0.00000043
 131         0.00012347
 132        -0.00003250
 133        -0.00010546
 134        -0.00006131
 135        -0.00000278
 136        -0.00000579
 137        -0.00000459
 138        -0.00054613
 139         0.00003207
 140        -0.00000802
 141        -0.00000276
 142         0.00012626
 143        -0.00006096
 144        -0.00001512
 145        -0.00001794
 146        -0.00001165
 147        -0.00002528
 148        -0.00001022
 149        -0.00000183
 150         0.00000268
 151         0.00001100
 152         0.00001253
 153         0.00000449
 154        -0.00000632
 155         0.00000799
 156         0.00001105
 157         0.00001272
 158         0.00000353
 159        -0.00000399
 160        -0.00000978
 161        -0.00000383
 162         0.00006329
 163         0.00000290
 164         0.00000715
 165         0.00000080
Sym=     4a  
Ene=   -15.6200
Spin= Alpha
Occup=    2.00000
   1         0.00081012
   2         0.00003550
   3        -0.00073686
   4         0.00001651
   5        -0.00005186
   6        -0.00000776
   7        -0.00080661
   8         0.00003566
   9         0.00004729
  10         0.00005471
  11         0.00004305
  12        -0.00001337
  13        -0.00001884
  14        -0.00000665
  15         0.00000985
  16         0.00001494
  17         0.00021262
  18         0.00169727
  19         0.00023125
  20         0.00008271
  21        -0.00000120
  22         0.00217210
  23         0.00019850
  24        -0.00008789
  25        -0.00014137
  26        -0.00010547
  27        -0.00006546
  28        -0.00009175
  29        -0.00000759
  30        -0.00000133
  31         0.99496569
  32         0.02569680
  33        -0.00544415
  34        -0.00012893
  35        -0.00016831
  36        -0.00001635
  37         0.00004464
  38         0.00160565
  39         0.00021195
  40        -0.00339987
  41        -0.00331725
  42        -0.00332319
  43         0.00002507
  44         0.00000804
  45        -0.00000059
  46        -0.00000052
  47         0.00010869
  48         0.00205340
  49        -0.00021030
  50         0.00008602
  51         0.00002256
  52        -0.00264697
  53        -0.00005378
  54         0.00013303
  55        -0.00008858
  56        -0.00009028
  57        -0.00009122
  58         0.00004073
  59         0.00000529
  60        -0.00000211
  61         0.00001749
  62         0.00008090
  63        -0.00158608
  64        -0.00003832
  65        -0.00003637
  66        -0.00000282
  67         0.00169850
  68        -0.00028886
  69        -0.00012833
  70        -0.00000529
  71        -0.00000134
  72         0.00001281
  73         0.00003055
  74         0.00000521
  75        -0.00000388
  76         0.00000451
  77        -0.00000386
  78         0.00182245
  79        -0.00000282
  80         0.00002599
  81         0.00000358
  82         0.00032403
  83         0.00063971
  84         0.00006805
  85         0.00003335
  86         0.00002227
  87         0.00000305
  88         0.00001420
  89         0.00000001
  90         0.00000227
  91        -0.00002959
  92        -0.00017595
  93         0.00108145
  94        -0.00002234
  95         0.00002276
  96         0.00000421
  97        -0.00002890
  98        -0.00039941
  99        -0.00005147
 100        -0.00016017
 101        -0.00002573
 102        -0.00012477
 103        -0.00003219
 104        -0.00000225
 105         0.00001717
 106        -0.00003773
 107        -0.00021535
 108         0.00140074
 109         0.00002496
 110         0.00001591
 111         0.00000080
 112        -0.00003950
 113        -0.00040477
 114        -0.00005171
 115        -0.00016942
 116        -0.00006035
 117        -0.00014082
 118         0.00002966
 119         0.00000563
 120         0.00001092
 121        -0.00001507
 122         0.00009329
 123        -0.00001237
 124        -0.00001062
 125        -0.00000077
 126         0.00015374
 127         0.00001312
 128         0.00000688
 129         0.00011658
 130         0.00001505
 131        -0.00009672
 132        -0.00000933
 133         0.00000111
 134        -0.00000312
 135        -0.00000053
 136        -0.00001299
 137        -0.00003761
 138        -0.00046323
 139         0.00002278
 140        -0.00004807
 141        -0.00000758
 142         0.00015747
 143         0.00004545
 144        -0.00000273
 145        -0.00001645
 146        -0.00003452
 147        -0.00003331
 148         0.00000143
 149        -0.00000083
 150        -0.00000027
 151        -0.00001408
 152        -0.00000057
 153         0.00000339
 154        -0.00001270
 155         0.00000344
 156        -0.00001406
 157        -0.00000023
 158         0.00000282
 159        -0.00001131
 160        -0.00000695
 161         0.00002575
 162         0.00008435
 163         0.00000634
 164         0.00001070
 165         0.00000110
Sym=     5a  
Ene=   -11.4070
Spin= Alpha
Occup=    2.00000
   1        -0.00025238
   2         0.00038732
   3        -0.00055670
   4         0.00004600
   5         0.00011689
   6         0.00001317
   7        -0.00028885
   8        -0.00145044
   9        -0.00017671
  10        -0.00030770
  11        -0.00066790
  12         0.00013382
  13        -0.00000401
  14         0.00002726
  15        -0.00012486
  16         0.99580335
  17         0.02640265
  18        -0.00169071
  19         0.00057170
  20        -0.00034621
  21        -0.00007587
  22        -0.00363490
  23         0.00230935
  24         0.00049777
  25        -0.00065332
  26        -0.00097787
  27        -0.00241764
  28        -0.00033335
  29        -0.00015330
  30         0.00024335
  31        -0.00026146
  32         0.00032443
  33        -0.00027771
  34        -0.00009978
  35        -0.00009808
  36        -0.00000777
  37         0.00161573
  38         0.00082453
  39         0.00002491
  40        -0.00058700
  41        -0.00039431
  42         0.00010125
  43        -0.00021352
  44         0.00001387
  45        -0.00006612
  46        -0.00049767
  47        -0.00068097
  48         0.00221505
  49         0.00012854
  50        -0.00000573
  51        -0.00000750
  52        -0.00366123
  53        -0.00404847
  54        -0.00034489
  55        -0.00000665
  56        -0.00008459
  57        -0.00023618
  58        -0.00001578
  59        -0.00001630
  60         0.00002463
  61         0.00002346
  62         0.00039714
  63        -0.00753759
  64         0.00004224
  65        -0.00002306
  66        -0.00000532
  67         0.00410406
  68        -0.00216766
  69        -0.00050527
  70        -0.00011101
  71        -0.00004587
  72         0.00007096
  73         0.00004732
  74         0.00001760
  75        -0.00002092
  76        -0.00020785
  77        -0.00058355
  78         0.00469680
  79         0.00005562
  80        -0.00014611
  81        -0.00002234
  82         0.00191091
  83         0.00436013
  84         0.00047796
  85         0.00007950
  86         0.00013338
  87        -0.00019627
  88        -0.00005851
  89        -0.00002509
  90         0.00005476
  91        -0.00024409
  92         0.00104796
  93        -0.00599564
  94         0.00034836
  95        -0.00021213
  96        -0.00004638
  97        -0.00207290
  98         0.00126437
  99         0.00027633
 100         0.00042657
 101         0.00042557
 102         0.00057877
 103         0.00000635
 104         0.00001023
 105        -0.00002427
 106        -0.00012748
 107        -0.00056670
 108         0.00418526
 109         0.00000269
 110         0.00000012
 111        -0.00000016
 112        -0.00080259
 113        -0.00022203
 114         0.00001327
 115        -0.00032020
 116        -0.00039153
 117        -0.00029596
 118         0.00000975
 119         0.00000287
 120        -0.00001550
 121         0.00022424
 122         0.00162900
 123        -0.00005364
 124        -0.00000887
 125         0.00000173
 126         0.00002992
 127         0.00010146
 128        -0.00012427
 129        -0.00021251
 130        -0.00002172
 131         0.00005966
 132        -0.00004745
 133         0.00012258
 134         0.00020680
 135         0.00002103
 136        -0.00000692
 137        -0.00002095
 138        -0.00128884
 139         0.00002841
 140        -0.00002808
 141        -0.00000526
 142         0.00035001
 143        -0.00023664
 144        -0.00005051
 145         0.00000824
 146        -0.00001451
 147        -0.00002035
 148        -0.00002376
 149        -0.00000490
 150         0.00000220
 151        -0.00000202
 152         0.00007278
 153         0.00000435
 154        -0.00000940
 155         0.00001244
 156        -0.00000199
 157         0.00007306
 158         0.00000291
 159        -0.00000580
 160        -0.00001484
 161         0.00003718
 162        -0.00008559
 163         0.00002025
 164        -0.00000406
 165        -0.00000160
Sym=     6a  
Ene=   -11.3720
Spin= Alpha
Occup=    2.00000
   1         0.00004127
   2         0.00017940
   3        -0.00235312
   4        -0.00003882
   5         0.00002918
   6         0.00000590
   7        -0.00001002
   8        -0.00166981
   9        -0.00022064
  10         0.00004741
  11         0.00003708
  12         0.00006170
  13        -0.00005618
  14        -0.00000663
  15        -0.00000067
  16         0.00026088
  17        -0.00055587
  18        -0.00070501
  19        -0.00018225
  20        -0.00008142
  21        -0.00000113
  22         0.00148196
  23        -0.00423637
  24        -0.00064085
  25        -0.00005090
  26        -0.00009341
  27        -0.00022463
  28         0.00003328
  29        -0.00000637
  30         0.00001872
  31        -0.00026960
  32         0.00026733
  33         0.00093783
  34         0.00021676
  35        -0.00004878
  36        -0.00001788
  37        -0.00371493
  38        -0.00019927
  39         0.00016983
  40        -0.00074825
  41        -0.00039859
  42         0.00005537
  43         0.00028263
  44         0.00008780
  45        -0.00008680
  46         0.99586307
  47         0.02695929
  48        -0.00663594
  49        -0.00049720
  50         0.00062363
  51         0.00010925
  52         0.00385968
  53         0.00750469
  54         0.00079327
  55        -0.00061110
  56        -0.00116878
  57        -0.00228303
  58         0.00030759
  59        -0.00006276
  60         0.00015800
  61         0.00308067
  62         0.00003720
  63         0.00564622
  64         0.00010038
  65        -0.00010817
  66        -0.00001972
  67        -0.00161547
  68         0.00445575
  69         0.00067820
  70        -0.00028876