[Molden Format]
[N_Atoms]
                   15
[Atoms] (AU)
N1          1      7           0.30238736     -3.12354417      0.00000040
C2          2      6           2.54503365     -1.83953751     -0.00000503
N3          3      7           2.25757492      0.73366309      0.00000002
C4          4      6           0.01803449      2.09417070      0.00000376
C5          5      6          -2.29254918      0.54769333     -0.00000096
C6          6      6          -2.02112989     -1.95038898      0.00000013
O7          7      8           4.55581690     -2.86615018      0.00000117
O8          8      8           0.04953836      4.35250159     -0.00000062
H9          9      1           0.44049801     -4.99617207      0.00000062
H10        10      1           3.85220859      1.73765342      0.00000057
C11        11      6          -4.79184069      1.89369326     -0.00000032
H12        12      1          -3.61028565     -3.21199350      0.00000136
H13        13      1          -6.34120671      0.55330625     -0.00000051
H14        14      1          -4.96935612      3.09653824      1.64898745
H15        15      1          -4.96935606      3.09653835     -1.64898800
[Charge] (Mulliken)
 -0.74384265392722870     
  0.92300052572958702     
 -0.57643432759134683     
  0.64813261037054826     
 -0.28989200814406146     
   4.7058501578218781E-002
 -0.49694214645330348     
 -0.40760159501287951     
  0.33518095034875961     
  0.33662185775176723     
 -0.31724614940316620     
  0.16258822128261297     
  0.11004116457744351     
  0.13470368728861459     
  0.13463136160163114     
[GTO] (AU)
   1
   s   6
  0.417351146E+04  0.183477216E-02
  0.627457911E+03  0.139946270E-01
  0.142902093E+03  0.685865518E-01
  0.402343293E+02  0.232240873E+00
  0.128202129E+02  0.469069948E+00
  0.439043701E+01  0.360455199E+00
   s   3
  0.116263619E+02 -0.114961182E+00
  0.271627981E+01 -0.169117479E+00
  0.772218397E+00  0.114585195E+01
   s   1
  0.212031497E+00  0.100000000E+01
   p   3
  0.116263619E+02  0.675797439E-01
  0.271627981E+01  0.323907296E+00
  0.772218397E+00  0.740895140E+00
   p   1
  0.212031497E+00  0.100000000E+01
   d   1
  0.800000000E+00  0.100000000E+01
 
   2
   s   6
  0.304752488E+04  0.183473713E-02
  0.457369518E+03  0.140373228E-01
  0.103948685E+03  0.688426223E-01
  0.292101553E+02  0.232184443E+00
  0.928666296E+01  0.467941348E+00
  0.316392696E+01  0.362311985E+00
   s   3
  0.786827235E+01 -0.119332420E+00
  0.188128854E+01 -0.160854152E+00
  0.544249258E+00  0.114345644E+01
   s   1
  0.168714478E+00  0.100000000E+01
   p   3
  0.786827235E+01  0.689990666E-01
  0.188128854E+01  0.316423961E+00
  0.544249258E+00  0.744308291E+00
   p   1
  0.168714478E+00  0.100000000E+01
   d   1
  0.800000000E+00  0.100000000E+01
 
   3
   s   6
  0.417351146E+04  0.183477216E-02
  0.627457911E+03  0.139946270E-01
  0.142902093E+03  0.685865518E-01
  0.402343293E+02  0.232240873E+00
  0.128202129E+02  0.469069948E+00
  0.439043701E+01  0.360455199E+00
   s   3
  0.116263619E+02 -0.114961182E+00
  0.271627981E+01 -0.169117479E+00
  0.772218397E+00  0.114585195E+01
   s   1
  0.212031497E+00  0.100000000E+01
   p   3
  0.116263619E+02  0.675797439E-01
  0.271627981E+01  0.323907296E+00
  0.772218397E+00  0.740895140E+00
   p   1
  0.212031497E+00  0.100000000E+01
   d   1
  0.800000000E+00  0.100000000E+01
 
   4
   s   6
  0.304752488E+04  0.183473713E-02
  0.457369518E+03  0.140373228E-01
  0.103948685E+03  0.688426223E-01
  0.292101553E+02  0.232184443E+00
  0.928666296E+01  0.467941348E+00
  0.316392696E+01  0.362311985E+00
   s   3
  0.786827235E+01 -0.119332420E+00
  0.188128854E+01 -0.160854152E+00
  0.544249258E+00  0.114345644E+01
   s   1
  0.168714478E+00  0.100000000E+01
   p   3
  0.786827235E+01  0.689990666E-01
  0.188128854E+01  0.316423961E+00
  0.544249258E+00  0.744308291E+00
   p   1
  0.168714478E+00  0.100000000E+01
   d   1
  0.800000000E+00  0.100000000E+01
 
   5
   s   6
  0.304752488E+04  0.183473713E-02
  0.457369518E+03  0.140373228E-01
  0.103948685E+03  0.688426223E-01
  0.292101553E+02  0.232184443E+00
  0.928666296E+01  0.467941348E+00
  0.316392696E+01  0.362311985E+00
   s   3
  0.786827235E+01 -0.119332420E+00
  0.188128854E+01 -0.160854152E+00
  0.544249258E+00  0.114345644E+01
   s   1
  0.168714478E+00  0.100000000E+01
   p   3
  0.786827235E+01  0.689990666E-01
  0.188128854E+01  0.316423961E+00
  0.544249258E+00  0.744308291E+00
   p   1
  0.168714478E+00  0.100000000E+01
   d   1
  0.800000000E+00  0.100000000E+01
 
   6
   s   6
  0.304752488E+04  0.183473713E-02
  0.457369518E+03  0.140373228E-01
  0.103948685E+03  0.688426223E-01
  0.292101553E+02  0.232184443E+00
  0.928666296E+01  0.467941348E+00
  0.316392696E+01  0.362311985E+00
   s   3
  0.786827235E+01 -0.119332420E+00
  0.188128854E+01 -0.160854152E+00
  0.544249258E+00  0.114345644E+01
   s   1
  0.168714478E+00  0.100000000E+01
   p   3
  0.786827235E+01  0.689990666E-01
  0.188128854E+01  0.316423961E+00
  0.544249258E+00  0.744308291E+00
   p   1
  0.168714478E+00  0.100000000E+01
   d   1
  0.800000000E+00  0.100000000E+01
 
   7
   s   6
  0.548467166E+04  0.183107443E-02
  0.825234946E+03  0.139501722E-01
  0.188046958E+03  0.684450781E-01
  0.529645000E+02  0.232714336E+00
  0.168975704E+02  0.470192898E+00
  0.579963534E+01  0.358520853E+00
   s   3
  0.155396162E+02 -0.110777550E+00
  0.359993359E+01 -0.148026263E+00
  0.101376175E+01  0.113076702E+01
   s   1
  0.270005823E+00  0.100000000E+01
   p   3
  0.155396162E+02  0.708742682E-01
  0.359993359E+01  0.339752839E+00
  0.101376175E+01  0.727158577E+00
   p   1
  0.270005823E+00  0.100000000E+01
   d   1
  0.800000000E+00  0.100000000E+01
 
   8
   s   6
  0.548467166E+04  0.183107443E-02
  0.825234946E+03  0.139501722E-01
  0.188046958E+03  0.684450781E-01
  0.529645000E+02  0.232714336E+00
  0.168975704E+02  0.470192898E+00
  0.579963534E+01  0.358520853E+00
   s   3
  0.155396162E+02 -0.110777550E+00
  0.359993359E+01 -0.148026263E+00
  0.101376175E+01  0.113076702E+01
   s   1
  0.270005823E+00  0.100000000E+01
   p   3
  0.155396162E+02  0.708742682E-01
  0.359993359E+01  0.339752839E+00
  0.101376175E+01  0.727158577E+00
   p   1
  0.270005823E+00  0.100000000E+01
   d   1
  0.800000000E+00  0.100000000E+01
 
   9
   s   3
  0.187311370E+02  0.334946043E-01
  0.282539437E+01  0.234726954E+00
  0.640121692E+00  0.813757326E+00
   s   1
  0.161277759E+00  0.100000000E+01
   p   1
  0.110000000E+01  0.100000000E+01
 
  10
   s   3
  0.187311370E+02  0.334946043E-01
  0.282539437E+01  0.234726954E+00
  0.640121692E+00  0.813757326E+00
   s   1
  0.161277759E+00  0.100000000E+01
   p   1
  0.110000000E+01  0.100000000E+01
 
  11
   s   6
  0.304752488E+04  0.183473713E-02
  0.457369518E+03  0.140373228E-01
  0.103948685E+03  0.688426223E-01
  0.292101553E+02  0.232184443E+00
  0.928666296E+01  0.467941348E+00
  0.316392696E+01  0.362311985E+00
   s   3
  0.786827235E+01 -0.119332420E+00
  0.188128854E+01 -0.160854152E+00
  0.544249258E+00  0.114345644E+01
   s   1
  0.168714478E+00  0.100000000E+01
   p   3
  0.786827235E+01  0.689990666E-01
  0.188128854E+01  0.316423961E+00
  0.544249258E+00  0.744308291E+00
   p   1
  0.168714478E+00  0.100000000E+01
   d   1
  0.800000000E+00  0.100000000E+01
 
  12
   s   3
  0.187311370E+02  0.334946043E-01
  0.282539437E+01  0.234726954E+00
  0.640121692E+00  0.813757326E+00
   s   1
  0.161277759E+00  0.100000000E+01
   p   1
  0.110000000E+01  0.100000000E+01
 
  13
   s   3
  0.187311370E+02  0.334946043E-01
  0.282539437E+01  0.234726954E+00
  0.640121692E+00  0.813757326E+00
   s   1
  0.161277759E+00  0.100000000E+01
   p   1
  0.110000000E+01  0.100000000E+01
 
  14
   s   3
  0.187311370E+02  0.334946043E-01
  0.282539437E+01  0.234726954E+00
  0.640121692E+00  0.813757326E+00
   s   1
  0.161277759E+00  0.100000000E+01
   p   1
  0.110000000E+01  0.100000000E+01
 
  15
   s   3
  0.187311370E+02  0.334946043E-01
  0.282539437E+01  0.234726954E+00
  0.640121692E+00  0.813757326E+00
   s   1
  0.161277759E+00  0.100000000E+01
   p   1
  0.110000000E+01  0.100000000E+01
 
[MO]
Sym=     1a  
Ene=   -20.5980
Spin= Alpha
Occup=    1.00000
   1        -0.00001303
   2        -0.00006098
   3         0.00034019
   4        -0.00003337
   5        -0.00001712
   6        -0.00000007
   7         0.00010831
   8         0.00013249
   9        -0.00000008
  10        -0.00010572
  11         0.00010193
  12        -0.00006354
  13         0.00006696
  14        -0.00000000
  15        -0.00000000
  16        -0.00001344
  17         0.00043181
  18        -0.00101279
  19        -0.00014827
  20         0.00007490
  21         0.00000007
  22        -0.00058589
  23         0.00029949
  24         0.00000011
  25        -0.00080028
  26        -0.00022331
  27        -0.00003455
  28         0.00046150
  29         0.00000001
  30        -0.00000000
  31        -0.00001174
  32        -0.00005408
  33         0.00032133
  34        -0.00000531
  35         0.00003608
  36        -0.00000006
  37        -0.00003024
  38        -0.00019811
  39        -0.00000008
  40        -0.00002952
  41         0.00002260
  42        -0.00005899
  43         0.00013943
  44         0.00000000
  45         0.00000000
  46         0.00001424
  47         0.00006391
  48        -0.00024743
  49         0.00002846
  50        -0.00001689
  51        -0.00000001
  52         0.00012140
  53         0.00052011
  54        -0.00000000
  55         0.00005144
  56        -0.00000204
  57         0.00002600
  58        -0.00001406
  59        -0.00000000
  60         0.00000000
  61        -0.00000426
  62        -0.00003029
  63         0.00068889
  64         0.00001289
  65         0.00000073
  66        -0.00000000
  67         0.00031542
  68        -0.00018289
  69         0.00000000
  70         0.00001409
  71        -0.00000870
  72        -0.00000162
  73        -0.00001513
  74        -0.00000000
  75         0.00000000
  76         0.00000847
  77         0.00005289
  78        -0.00047200
  79         0.00002899
  80        -0.00000891
  81        -0.00000002
  82        -0.00024843
  83        -0.00031835
  84        -0.00000001
  85        -0.00000500
  86         0.00001367
  87         0.00001894
  88        -0.00004270
  89        -0.00000000
  90         0.00000000
  91         0.99464568
  92         0.02109149
  93         0.00505309
  94        -0.00152020
  95         0.00077705
  96         0.00000019
  97        -0.00015467
  98         0.00007615
  99        -0.00000004
 100        -0.00365341
 101        -0.00398691
 102        -0.00419422
 103        -0.00026055
 104        -0.00000000
 105        -0.00000002
 106         0.00001858
 107         0.00006838
 108        -0.00043987
 109         0.00000253
 110        -0.00000720
 111         0.00000001
 112        -0.00001640
 113         0.00009265
 114         0.00000001
 115         0.00004184
 116         0.00003784
 117         0.00003999
 118         0.00000166
 119         0.00000000
 120        -0.00000000
 121        -0.00004078
 122        -0.00001611
 123         0.00001645
 124        -0.00004597
 125        -0.00000000
 126        -0.00003613
 127        -0.00002610
 128         0.00004838
 129         0.00001313
 130        -0.00000000
 131         0.00000124
 132         0.00000717
 133         0.00006688
 134         0.00000069
 135         0.00000065
 136        -0.00000000
 137         0.00001166
 138        -0.00000876
 139         0.00000000
 140        -0.00000321
 141         0.00000206
 142         0.00000251
 143         0.00000449
 144         0.00000000
 145         0.00000000
 146        -0.00000566
 147        -0.00012482
 148         0.00000516
 149         0.00001129
 150        -0.00000000
 151        -0.00000228
 152         0.00000409
 153         0.00000102
 154        -0.00000185
 155         0.00000000
 156         0.00000175
 157        -0.00000515
 158         0.00000089
 159         0.00000002
 160         0.00000129
 161         0.00000176
 162        -0.00000514
 163         0.00000089
 164         0.00000002
 165        -0.00000128
Sym=     1a  
Ene=   -20.5980
Spin= Beta
Occup=    1.00000
   1        -0.00001303
   2        -0.00006098
   3         0.00034019
   4        -0.00003337
   5        -0.00001712
   6        -0.00000007
   7         0.00010831
   8         0.00013249
   9        -0.00000008
  10        -0.00010572
  11         0.00010193
  12        -0.00006354
  13         0.00006696
  14        -0.00000000
  15        -0.00000000
  16        -0.00001344
  17         0.00043181
  18        -0.00101279
  19        -0.00014827
  20         0.00007490
  21         0.00000007
  22        -0.00058589
  23         0.00029949
  24         0.00000011
  25        -0.00080028
  26        -0.00022331
  27        -0.00003455
  28         0.00046150
  29         0.00000001
  30        -0.00000000
  31        -0.00001174
  32        -0.00005408
  33         0.00032133
  34        -0.00000531
  35         0.00003608
  36        -0.00000006
  37        -0.00003024
  38        -0.00019811
  39        -0.00000008
  40        -0.00002952
  41         0.00002260
  42        -0.00005899
  43         0.00013943
  44         0.00000000
  45         0.00000000
  46         0.00001424
  47         0.00006391
  48        -0.00024743
  49         0.00002846
  50        -0.00001689
  51        -0.00000001
  52         0.00012140
  53         0.00052011
  54        -0.00000000
  55         0.00005144
  56        -0.00000204
  57         0.00002600
  58        -0.00001406
  59        -0.00000000
  60         0.00000000
  61        -0.00000426
  62        -0.00003029
  63         0.00068889
  64         0.00001289
  65         0.00000073
  66        -0.00000000
  67         0.00031542
  68        -0.00018289
  69         0.00000000
  70         0.00001409
  71        -0.00000870
  72        -0.00000162
  73        -0.00001513
  74        -0.00000000
  75         0.00000000
  76         0.00000847
  77         0.00005289
  78        -0.00047200
  79         0.00002899
  80        -0.00000891
  81        -0.00000002
  82        -0.00024843
  83        -0.00031835
  84        -0.00000001
  85        -0.00000500
  86         0.00001367
  87         0.00001894
  88        -0.00004270
  89        -0.00000000
  90         0.00000000
  91         0.99464568
  92         0.02109149
  93         0.00505309
  94        -0.00152020
  95         0.00077705
  96         0.00000019
  97        -0.00015467
  98         0.00007615
  99        -0.00000004
 100        -0.00365341
 101        -0.00398691
 102        -0.00419422
 103        -0.00026055
 104        -0.00000000
 105        -0.00000002
 106         0.00001858
 107         0.00006838
 108        -0.00043987
 109         0.00000253
 110        -0.00000720
 111         0.00000001
 112        -0.00001640
 113         0.00009265
 114         0.00000001
 115         0.00004184
 116         0.00003784
 117         0.00003999
 118         0.00000166
 119         0.00000000
 120        -0.00000000
 121        -0.00004078
 122        -0.00001611
 123         0.00001645
 124        -0.00004597
 125        -0.00000000
 126        -0.00003613
 127        -0.00002610
 128         0.00004838
 129         0.00001313
 130        -0.00000000
 131         0.00000124
 132         0.00000717
 133         0.00006688
 134         0.00000069
 135         0.00000065
 136        -0.00000000
 137         0.00001166
 138        -0.00000876
 139         0.00000000
 140        -0.00000321
 141         0.00000206
 142         0.00000251
 143         0.00000449
 144         0.00000000
 145         0.00000000
 146        -0.00000566
 147        -0.00012482
 148         0.00000516
 149         0.00001129
 150        -0.00000000
 151        -0.00000228
 152         0.00000409
 153         0.00000102
 154        -0.00000185
 155         0.00000000
 156         0.00000175
 157        -0.00000515
 158         0.00000089
 159         0.00000002
 160         0.00000129
 161         0.00000176
 162        -0.00000514
 163         0.00000089
 164         0.00000002
 165        -0.00000128
Sym=     2a  
Ene=   -20.5770
Spin= Alpha
Occup=    1.00000
   1        -0.00000131
   2        -0.00000320
   3         0.00019157
   4         0.00000240
   5         0.00000647
   6        -0.00000001
   7         0.00006186
   8         0.00003728
   9        -0.00000001
  10        -0.00002339
  11         0.00000875
  12         0.00000586
  13         0.00000386
  14         0.00000000
  15        -0.00000000
  16         0.00001245
  17         0.00005286
  18         0.00001958
  19        -0.00000283
  20         0.00003514
  21         0.00000001
  22         0.00037574
  23        -0.00001811
  24         0.00000001
  25         0.00000177
  26         0.00005288
  27         0.00002206
  28         0.00001617
  29         0.00000000
  30        -0.00000000
  31        -0.00001109
  32        -0.00004674
  33         0.00021003
  34         0.00004126
  35        -0.00003237
  36        -0.00000005
  37        -0.00015571
  38         0.00021944
  39        -0.00000003
  40         0.00007313
  41        -0.00010233
  42        -0.00005816
  43         0.00006135
  44         0.00000000
  45        -0.00000000
  46        -0.00001411
  47         0.00040385
  48        -0.00078723
  49         0.00000431
  50        -0.00016930
  51        -0.00000011
  52        -0.00023410
  53        -0.00092100
  54        -0.00000007
  55        -0.00003149
  56        -0.00093577
  57        -0.00004605
  58        -0.00000351
  59        -0.00000000
  60        -0.00000000
  61        -0.00000192
  62        -0.00000991
  63        -0.00018407
  64        -0.00000203
  65        -0.00002627
  66        -0.00000005
  67        -0.00018902
  68         0.00014458
  69        -0.00000003
  70         0.00007002
  71        -0.00007524
  72        -0.00002070
  73        -0.00003633
  74        -0.00000000
  75        -0.00000000
  76         0.00000212
  77         0.00002771
  78         0.00008885
  79        -0.00000449
  80         0.00002352
  81        -0.00000005
  82        -0.00001468
  83         0.00000837
  84        -0.00000004
  85        -0.00000993
  86         0.00000773
  87         0.00000376
  88        -0.00004103
  89        -0.00000000
  90        -0.00000000
  91         0.00000924
  92         0.00006115
  93        -0.00037810
  94        -0.00000520
  95         0.00000487
  96         0.00000003
  97         0.00007144
  98        -0.00005893
  99         0.00000002
 100         0.00003275
 101         0.00003592
 102         0.00003693
 103         0.00000382
 104        -0.00000000
 105         0.00000000
 106         0.99463361
 107         0.02106137
 108         0.00525937
 109         0.00001432
 110        -0.00165587
 111        -0.00000006
 112         0.00000861
 113        -0.00019740
 114        -0.00000001
 115        -0.00412095
 116        -0.00358891
 117        -0.00423882
 118         0.00000904
 119         0.00000006
 120         0.00000001
 121        -0.00000990
 122        -0.00000496
 123        -0.00000222
 124        -0.00000505
 125        -0.00000000
 126        -0.00004130
 127        -0.00004085
 128         0.00003173
 129         0.00002430
 130        -0.00000000
 131         0.00000351
 132         0.00001918
 133        -0.00011094
 134         0.00000166
 135         0.00002237
 136         0.00000000
 137        -0.00014354
 138        -0.00004576
 139         0.00000001
 140        -0.00000223
 141        -0.00000099
 142         0.00000578
 143         0.00002128
 144        -0.00000000
 145        -0.00000000
 146         0.00000792
 147        -0.00000898
 148         0.00001068
 149         0.00000600
 150        -0.00000000
 151        -0.00001279
 152        -0.00007358
 153        -0.00000492
 154        -0.00000802
 155         0.00000000
 156         0.00002353
 157        -0.00001012
 158         0.00000837
 159         0.00000805
 160        -0.00000051
 161         0.00002352
 162        -0.00001013
 163         0.00000837
 164         0.00000805
 165         0.00000052
Sym=     2a  
Ene=   -20.5770
Spin= Beta
Occup=    1.00000
   1        -0.00000131
   2        -0.00000320
   3         0.00019157
   4         0.00000240
   5         0.00000647
   6        -0.00000001
   7         0.00006186
   8         0.00003728
   9        -0.00000001
  10        -0.00002339
  11         0.00000875
  12         0.00000586
  13         0.00000386
  14         0.00000000
  15        -0.00000000
  16         0.00001245
  17         0.00005286
  18         0.00001958
  19        -0.00000283
  20         0.00003514
  21         0.00000001
  22         0.00037574
  23        -0.00001811
  24         0.00000001
  25         0.00000177
  26         0.00005288
  27         0.00002206
  28         0.00001617
  29         0.00000000
  30        -0.00000000
  31        -0.00001109
  32        -0.00004674
  33         0.00021003
  34         0.00004126
  35        -0.00003237
  36        -0.00000005
  37        -0.00015571
  38         0.00021944
  39        -0.00000003
  40         0.00007313
  41        -0.00010233
  42        -0.00005816
  43         0.00006135
  44         0.00000000
  45        -0.00000000
  46        -0.00001411
  47         0.00040385
  48        -0.00078723
  49         0.00000431
  50        -0.00016930
  51        -0.00000011
  52        -0.00023410
  53        -0.00092100
  54        -0.00000007
  55        -0.00003149
  56        -0.00093577
  57        -0.00004605
  58        -0.00000351
  59        -0.00000000
  60        -0.00000000
  61        -0.00000192
  62        -0.00000991
  63        -0.00018407
  64        -0.00000203
  65        -0.00002627
  66        -0.00000005
  67        -0.00018902
  68         0.00014458
  69        -0.00000003
  70         0.00007002
  71        -0.00007524
  72        -0.00002070
  73        -0.00003633
  74        -0.00000000
  75        -0.00000000
  76         0.00000212
  77         0.00002771
  78         0.00008885
  79        -0.00000449
  80         0.00002352
  81        -0.00000005
  82        -0.00001468
  83         0.00000837
  84        -0.00000004
  85        -0.00000993
  86         0.00000773
  87         0.00000376
  88        -0.00004103
  89        -0.00000000
  90        -0.00000000
  91         0.00000924
  92         0.00006115
  93        -0.00037810
  94        -0.00000520
  95         0.00000487
  96         0.00000003
  97         0.00007144
  98        -0.00005893
  99         0.00000002
 100         0.00003275
 101         0.00003592
 102         0.00003693
 103         0.00000382
 104        -0.00000000
 105         0.00000000
 106         0.99463361
 107         0.02106137
 108         0.00525937
 109         0.00001432
 110        -0.00165587
 111        -0.00000006
 112         0.00000861
 113        -0.00019740
 114        -0.00000001
 115        -0.00412095
 116        -0.00358891
 117        -0.00423882
 118         0.00000904
 119         0.00000006
 120         0.00000001
 121        -0.00000990
 122        -0.00000496
 123        -0.00000222
 124        -0.00000505
 125        -0.00000000
 126        -0.00004130
 127        -0.00004085
 128         0.00003173
 129         0.00002430
 130        -0.00000000
 131         0.00000351
 132         0.00001918
 133        -0.00011094
 134         0.00000166
 135         0.00002237
 136         0.00000000
 137        -0.00014354
 138        -0.00004576
 139         0.00000001
 140        -0.00000223
 141        -0.00000099
 142         0.00000578
 143         0.00002128
 144        -0.00000000
 145        -0.00000000
 146         0.00000792
 147        -0.00000898
 148         0.00001068
 149         0.00000600
 150        -0.00000000
 151        -0.00001279
 152        -0.00007358
 153        -0.00000492
 154        -0.00000802
 155         0.00000000
 156         0.00002353
 157        -0.00001012
 158         0.00000837
 159         0.00000805
 160        -0.00000051
 161         0.00002352
 162        -0.00001013
 163         0.00000837
 164         0.00000805
 165         0.00000052
Sym=     3a  
Ene=   -15.6340
Spin= Alpha
Occup=    1.00000
   1         0.99498596
   2         0.02554243
   3        -0.00498254
   4         0.00010100
   5         0.00009942
   6         0.00000007
   7        -0.00027947
   8        -0.00161880
   9         0.00000041
  10        -0.00339152
  11        -0.00325399
  12        -0.00333005
  13        -0.00000731
  14        -0.00000008
  15         0.00000006
  16         0.00001705
  17         0.00021299
  18         0.00179363
  19        -0.00023075
  20        -0.00011256
  21        -0.00000005
  22        -0.00218499
  23        -0.00055438
  24        -0.00000010
  25        -0.00011508
  26        -0.00010045
  27        -0.00006160
  28        -0.00007826
  29        -0.00000005
  30        -0.00000005
  31        -0.00098425
  32        -0.00000598
  33        -0.00074257
  34        -0.00002460
  35         0.00004737
  36        -0.00000050
  37         0.00088059
  38        -0.00001991
  39        -0.00000036
  40         0.00006191
  41         0.00005061
  42        -0.00000807
  43        -0.00001567
  44         0.00000001
  45         0.00000000
  46        -0.00000365
  47        -0.00003837
  48         0.00146522
  49         0.00001753
  50        -0.00002353
  51        -0.00000033
  52        -0.00017764
  53        -0.00095116
  54        -0.00000016
  55         0.00001862
  56         0.00001483
  57        -0.00001004
  58         0.00000985
  59        -0.00000002
  60        -0.00000001
  61         0.00002770
  62         0.00013596
  63        -0.00216819
  64         0.00002899
  65         0.00002979
  66        -0.00000003
  67        -0.00162844
  68         0.00067930
  69         0.00000001
  70         0.00000899
  71        -0.00000330
  72         0.00003058
  73         0.00003600
  74        -0.00000001
  75        -0.00000001
  76         0.00001000
  77         0.00014273
  78         0.00281699
  79         0.00018485
  80        -0.00010513
  81         0.00000008
  82         0.00177087
  83         0.00075837
  84        -0.00000002
  85        -0.00007131
  86        -0.00005334
  87        -0.00008369
  88         0.00006967
  89        -0.00000000
  90        -0.00000001
  91        -0.00002831
  92        -0.00016846
  93         0.00101388
  94         0.00001202
  95        -0.00004571
  96        -0.00000007
  97         0.00000989
  98         0.00040251
  99        -0.00000003
 100        -0.00014837
 101        -0.00002493
 102        -0.00012360
 103        -0.00004300
 104         0.00000001
 105         0.00000000
 106        -0.00001492
 107        -0.00006351
 108         0.00042598
 109        -0.00001454
 110         0.00000713
 111        -0.00000028
 112         0.00005709
 113        -0.00005205
 114        -0.00000017
 115        -0.00003531
 116        -0.00004721
 117        -0.00004502
 118        -0.00001254
 119        -0.00000000
 120         0.00000002
 121         0.00010370
 122        -0.00000957
 123         0.00000946
 124        -0.00015093
 125         0.00000002
 126        -0.00010367
 127        -0.00000229
 128        -0.00000489
 129         0.00000634
 130        -0.00000002
 131        -0.00000565
 132        -0.00000354
 133        -0.00056573
 134        -0.00002496
 135         0.00002230
 136         0.00000000
 137        -0.00013325
 138         0.00007254
 139         0.00000001
 140        -0.00000705
 141        -0.00002242
 142        -0.00002537
 143        -0.00000184
 144        -0.00000000
 145         0.00000001
 146         0.00001275
 147         0.00045451
 148        -0.00005492
 149         0.00002210
 150         0.00000001
 151        -0.00000269
 152         0.00005595
 153         0.00000463
 154         0.00000608
 155         0.00000000
 156         0.00001091
 157         0.00001433
 158        -0.00000656
 159         0.00000112
 160        -0.00000906
 161         0.00001090
 162         0.00001436
 163        -0.00000656
 164         0.00000112
 165         0.00000906
Sym=     3a  
Ene=   -15.6340
Spin= Beta
Occup=    1.00000
   1         0.99498596
   2         0.02554243
   3        -0.00498254
   4         0.00010100
   5         0.00009942
   6         0.00000007
   7        -0.00027947
   8        -0.00161880
   9         0.00000041
  10        -0.00339152
  11        -0.00325399
  12        -0.00333005
  13        -0.00000731
  14        -0.00000008
  15         0.00000006
  16         0.00001705
  17         0.00021299
  18         0.00179363
  19        -0.00023075
  20        -0.00011256
  21        -0.00000005
  22        -0.00218499
  23        -0.00055438
  24        -0.00000010
  25        -0.00011508
  26        -0.00010045
  27        -0.00006160
  28        -0.00007826
  29        -0.00000005
  30        -0.00000005
  31        -0.00098425
  32        -0.00000598
  33        -0.00074257
  34        -0.00002460
  35         0.00004737
  36        -0.00000050
  37         0.00088059
  38        -0.00001991
  39        -0.00000036
  40         0.00006191
  41         0.00005061
  42        -0.00000807
  43        -0.00001567
  44         0.00000001
  45         0.00000000
  46        -0.00000365
  47        -0.00003837
  48         0.00146522
  49         0.00001753
  50        -0.00002353
  51        -0.00000033
  52        -0.00017764
  53        -0.00095116
  54        -0.00000016
  55         0.00001862
  56         0.00001483
  57        -0.00001004
  58         0.00000985
  59        -0.00000002
  60        -0.00000001
  61         0.00002770
  62         0.00013596
  63        -0.00216819
  64         0.00002899
  65         0.00002979
  66        -0.00000003
  67        -0.00162844
  68         0.00067930
  69         0.00000001
  70         0.00000899