   This run of MOLCAS is using the pymolcas driver

                             OPE
                             OPE          NMOL  CASOP  ENMOLC A   SO
                 OPE        NMOLC        AS  OP EN  MO LC     AS  OP
                OPENM       OL CA        SO  PE NM  OL CA     SOP EN
                OP EN      MO   LC       AS  OP ENMOL  CASO   PENMOL
                OP  EN     MO   LC       AS  OP EN     MO     LC ASO
               OP   E  NMOL  C  AS       OP  EN MO     LC     AS  OP
               OP  E   NMO   LC AS        OPEN  MO     LCASOP EN   M
               O  PEN   MO  LCA  SO
            OPE   NMO   L   CAS    OP
        OPENMOL  CASOP     ENMOL   CASOPE
     OPENMOLCA   SOPENMOLCASOPEN   MOLCASOPE
    OPENMOLCAS   OP           EN   MOL    CAS
    OPENMOLCAS       OP  ENM        O     LCA
    OPENMOLCAS    OPEN  MOLCASO     P  E  NMO
    OPENMOLCAS     OP               E  N  MOL
    OPENMOLCA   SO           PENM   O  L  CAS    OPEN    MO    LCAS
    OPENMOLCA   SOP           ENM   O  L  CAS   OP  EN  MOLC  AS   O
    OPENMOLCA   SOPE           NM      O  LCA   S      OP  EN MO
    OPENMOLC                AS         O  PEN   M      OL  CA  SOPE
    OPENMO        LCASOPE  NMOL        C  ASO   P      ENMOLC     AS
    OPE     NMO      LCA  SO     P     E   NM   OL  CA SO  PE N   MO
          OPENMOLCA            SOPE   NMO        LCAS  O    P  ENMO
     OPENMOLCASOPENMOLCASOPENMOLCASOPENMOLCA
        OPENMOLCASOPENMOLCASOPENMOLCASOPE
            OPENMOLCASOPENMOLCASOPENM
               OPENMOLCASOPENMOLCA        version: 22.06
                   OPENMOLCASO
                       OPE                tag: 360-g995f53266

 OpenMolcas is free software; you can redistribute it and/or modify it
 under the terms of the GNU Lesser General Public License version 2.1.
 OpenMolcas is distributed in the hope that it will be useful, but it
 is provided "as is" and without any express or implied warranties.
 For more details see the full text of the license in the file
 LICENSE or in <http://www.gnu.org/licenses/>.

                 Copyright (C) The OpenMolcas Authors
           For the author list and the recommended citation,
                   consult the file CONTRIBUTORS.md

           *************************************************
           * pymolcas version py2.06                       *
           *   build bf02a7b0d12655ada6bc2259076d6962      *
           *   (after the EMIL interpreter by V. Veryazov) *
           *************************************************

configuration info
------------------
Host name: qcexmaster (Linux)
C Compiler ID: GNU
C flags: -std=gnu99
Fortran Compiler ID: GNU
Fortran flags: -fno-aggressive-loop-optimizations -cpp -fdefault-integer-8 -fmax-stack-var-size=1048576
Definitions: _MOLCAS_;_I8_;_LINUX_
Parallel: OFF (GA=OFF)


   -------------------------------------------------------------------------------------------
  |
  |           Project: caspt2_2
  |    Submitted from: /scr/marlenne/_caspt2_2/Work
  |      Scratch area: /scr/marlenne/_caspt2_2/Work
  |   Save outputs to: /home/marlenne/thymine/Thymine/MOLCAS/3.Ground_State/2.GS_planar/CASPT2
  |            Molcas: /soft/OPENMOLCAS/CASPT2-GRADIENTS/OpenMolcas/build
  |
  | Scratch area is NOT empty
  |
  |    MOLCAS_DRIVER = /soft/bin/pymolcas
  |    MOLCAS_NPROCS = 1
  |     MOLCAS_PRINT = 3
  |    MOLCAS_SOURCE = /soft/OPENMOLCAS/CASPT2-GRADIENTS/OpenMolcas/build
  | MOLCAS_STRUCTURE = 0
  |
   -------------------------------------------------------------------------------------------

++ ---------   Input file   ---------

&GATEWAY
   coord=$HomeDir/scf.Opt.xyz
   basis=6-31G**
   group=nosymm
   RICD

&SEWARD
   DoAnal

&RASSCF
Title
 Thymine
Spin
 1
Nactel
 14 0 0
Inactive
 26
Ras2
 10
CiRoot
 5 5 1
Lumorb
Levs
 0.8
Thrs
1.0D-06 1.0D-02 1.0D-02
Alter
2
 1 25 28
 1 36 40

&CASPT2
imag=0.2
ipea=0.0
multistate=all
nomult

-- ----------------------------------

--- Start Module: gateway at Tue Apr  4 16:58:20 2023 ---

()()()()()()()()()()()()()()()()()()()()()()()()()()()()()()()()()()()()()()()()()()()()()()()()()()

                                              &GATEWAY

                                   only a single process is used
                       available to each process: 4.0 GB of memory, 1 thread?
                                             pid: 23531
()()()()()()()()()()()()()()()()()()()()()()()()()()()()()()()()()()()()()()()()()()()()()()()()()()



 Basis Set     1 Label: N.6-31G**
 Basis set is read from library:basis_library 
 Basis Set Reference(s):
     P.C. Hariharan, J.A. Pople. Theor. Chim. Acta 28 (1973) 213-222. doi:10.1007/bf00533485
     NITROGEN (10s,4p,1d) -> [3s,2p,1d]




 Basis Set     2 Label: C.6-31G**
 Basis set is read from library:basis_library 
 Basis Set Reference(s):
     P.C. Hariharan, J.A. Pople. Theor. Chim. Acta 28 (1973) 213-222. doi:10.1007/bf00533485
     CARBON (10s,4p,1d) -> [3s,2p,1d]




 Basis Set     3 Label: N.6-31G**
 Basis set is read from library:basis_library 
 Basis Set Reference(s):
     P.C. Hariharan, J.A. Pople. Theor. Chim. Acta 28 (1973) 213-222. doi:10.1007/bf00533485
     NITROGEN (10s,4p,1d) -> [3s,2p,1d]




 Basis Set     4 Label: C.6-31G**
 Basis set is read from library:basis_library 
 Basis Set Reference(s):
     P.C. Hariharan, J.A. Pople. Theor. Chim. Acta 28 (1973) 213-222. doi:10.1007/bf00533485
     CARBON (10s,4p,1d) -> [3s,2p,1d]




 Basis Set     5 Label: O.6-31G**
 Basis set is read from library:basis_library 
 Basis Set Reference(s):
     P.C. Hariharan, J.A. Pople. Theor. Chim. Acta 28 (1973) 213-222. doi:10.1007/bf00533485
     OXYGEN (10s,4p,1d) -> [3s,2p,1d]




 Basis Set     6 Label: H.6-31G**
 Basis set is read from library:basis_library 
 Basis Set Reference(s):
     P.C. Hariharan, J.A. Pople. Theor. Chim. Acta 28 (1973) 213-222. doi:10.1007/bf00533485
     HYDROGEN (4s,1p) -> [2s,1p]




 Basis Set     7 Label: C.6-31G**
 Basis set is read from library:basis_library 
 Basis Set Reference(s):
     P.C. Hariharan, J.A. Pople. Theor. Chim. Acta 28 (1973) 213-222. doi:10.1007/bf00533485
     CARBON (10s,4p,1d) -> [3s,2p,1d]




 Basis Set     8 Label: H.6-31G**
 Basis set is read from library:basis_library 
 Basis Set Reference(s):
     P.C. Hariharan, J.A. Pople. Theor. Chim. Acta 28 (1973) 213-222. doi:10.1007/bf00533485
     HYDROGEN (4s,1p) -> [2s,1p]




 Basis Set    10 Label: N.6-31G**....acCD-aux-basis.
 On-the-fly basis set generation


 Basis Set    11 Label: N.6-31G**....acCD-aux-basis.
 On-the-fly basis set generation


 Basis Set    12 Label: C.6-31G**....acCD-aux-basis.
 On-the-fly basis set generation


 Basis Set    13 Label: C.6-31G**....acCD-aux-basis.
 On-the-fly basis set generation


 Basis Set    14 Label: N.6-31G**....acCD-aux-basis.
 On-the-fly basis set generation


 Basis Set    15 Label: N.6-31G**....acCD-aux-basis.
 On-the-fly basis set generation


 Basis Set    16 Label: C.6-31G**....acCD-aux-basis.
 On-the-fly basis set generation


 Basis Set    17 Label: C.6-31G**....acCD-aux-basis.
 On-the-fly basis set generation


 Basis Set    18 Label: O.6-31G**....acCD-aux-basis.
 On-the-fly basis set generation


 Basis Set    19 Label: O.6-31G**....acCD-aux-basis.
 On-the-fly basis set generation


 Basis Set    20 Label: H.6-31G**....acCD-aux-basis.
 On-the-fly basis set generation


 Basis Set    21 Label: C.6-31G**....acCD-aux-basis.
 On-the-fly basis set generation


 Basis Set    22 Label: C.6-31G**....acCD-aux-basis.
 On-the-fly basis set generation


 Basis Set    23 Label: H.6-31G**....acCD-aux-basis.
 On-the-fly basis set generation

  Weights used for alignment and distance                     
  mat. size =    15x    1
       14.0030740044299993
       12.0000000000000000
       14.0030740044299993
       12.0000000000000000
       12.0000000000000000
       12.0000000000000000
       15.9949146195700003
       15.9949146195700003
        1.0078250322300000
        1.0078250322300000
       12.0000000000000000
        1.0078250322300000
        1.0078250322300000
        1.0078250322300000
        1.0078250322300000


++    Symmetry information:
      ---------------------

                    Character Table for C1 

                             E  
                    a        1  x, y, xy, Rz, z, xz, Ry, yz, Rx, I
--


++    Basis set information:
      ----------------------


      Basis set label: N.6-31G**.........

      Electronic valence basis set:
      ------------------
      Associated Effective Charge   7.000000 au
      Associated Actual Charge      7.000000 au
      Nuclear Model: Point charge

      Shell  nPrim  nBasis  Cartesian Spherical Contaminant
         s      10       3        X                  
         p       4       2        X                  
         d       1       1        X                  

       Label   Cartesian Coordinates / Bohr

 N1                 0.3023873604       -3.1235441662        0.0000003968


      Basis set label: C.6-31G**.........

      Electronic valence basis set:
      ------------------
      Associated Effective Charge   6.000000 au
      Associated Actual Charge      6.000000 au
      Nuclear Model: Point charge

      Shell  nPrim  nBasis  Cartesian Spherical Contaminant
         s      10       3        X                  
         p       4       2        X                  
         d       1       1        X                  

       Label   Cartesian Coordinates / Bohr

 C2                 2.5450336527       -1.8395375121       -0.0000050267


      Basis set label: N.6-31G**.........

      Electronic valence basis set:
      ------------------
      Associated Effective Charge   7.000000 au
      Associated Actual Charge      7.000000 au
      Nuclear Model: Point charge

      Shell  nPrim  nBasis  Cartesian Spherical Contaminant
         s      10       3        X                  
         p       4       2        X                  
         d       1       1        X                  

       Label   Cartesian Coordinates / Bohr

 N3                 2.2575749208        0.7336630943        0.0000000189


      Basis set label: C.6-31G**.........

      Electronic valence basis set:
      ------------------
      Associated Effective Charge   6.000000 au
      Associated Actual Charge      6.000000 au
      Nuclear Model: Point charge

      Shell  nPrim  nBasis  Cartesian Spherical Contaminant
         s      10       3        X                  
         p       4       2        X                  
         d       1       1        X                  

       Label   Cartesian Coordinates / Bohr

 C4                 0.0180344879        2.0941706997        0.0000037606
 C5                -2.2925491782        0.5476933323       -0.0000009638
 C6                -2.0211298937       -1.9503889788        0.0000001323


      Basis set label: O.6-31G**.........

      Electronic valence basis set:
      ------------------
      Associated Effective Charge   8.000000 au
      Associated Actual Charge      8.000000 au
      Nuclear Model: Point charge

      Shell  nPrim  nBasis  Cartesian Spherical Contaminant
         s      10       3        X                  
         p       4       2        X                  
         d       1       1        X                  

       Label   Cartesian Coordinates / Bohr

 O7                 4.5558168990       -2.8661501832        0.0000011716
 O8                 0.0495383578        4.3525015865       -0.0000006236


      Basis set label: H.6-31G**.........

      Electronic valence basis set:
      ------------------
      Associated Effective Charge   1.000000 au
      Associated Actual Charge      1.000000 au
      Nuclear Model: Point charge

      Shell  nPrim  nBasis  Cartesian Spherical Contaminant
         s       4       2        X                  
         p       1       1        X                  

       Label   Cartesian Coordinates / Bohr

 H9                 0.4404980131       -4.9961720677        0.0000006236
 H10                3.8522085948        1.7376534194        0.0000005669


      Basis set label: C.6-31G**.........

      Electronic valence basis set:
      ------------------
      Associated Effective Charge   6.000000 au
      Associated Actual Charge      6.000000 au
      Nuclear Model: Point charge

      Shell  nPrim  nBasis  Cartesian Spherical Contaminant
         s      10       3        X                  
         p       4       2        X                  
         d       1       1        X                  

       Label   Cartesian Coordinates / Bohr

 C11               -4.7918406873        1.8936932645       -0.0000003213


      Basis set label: H.6-31G**.........

      Electronic valence basis set:
      ------------------
      Associated Effective Charge   1.000000 au
      Associated Actual Charge      1.000000 au
      Nuclear Model: Point charge

      Shell  nPrim  nBasis  Cartesian Spherical Contaminant
         s       4       2        X                  
         p       1       1        X                  

       Label   Cartesian Coordinates / Bohr

 H12               -3.6102856484       -3.2119934967        0.0000013606
 H13               -6.3412067089        0.5533062535       -0.0000005102
 H14               -4.9693561170        3.0965382413        1.6489874507
 H15               -4.9693560604        3.0965383547       -1.6489879988
--


++    Molecular structure info:
      -------------------------

                    ************************************************ 
                    **** Cartesian Coordinates / Bohr, Angstrom **** 
                    ************************************************ 

     Center  Label                x              y              z                     x              y              z
        1      N1               0.302387      -3.123544       0.000000              0.160017      -1.652908       0.000000
        2      C2               2.545034      -1.839538      -0.000005              1.346774      -0.973441      -0.000003
        3      N3               2.257575       0.733663       0.000000              1.194657       0.388238       0.000000
        4      C4               0.018034       2.094171       0.000004              0.009543       1.108187       0.000002
        5      C5              -2.292549       0.547693      -0.000001             -1.213165       0.289827      -0.000001
        6      C6              -2.021130      -1.950389       0.000000             -1.069536      -1.032101       0.000000
        7      O7               4.555817      -2.866150       0.000001              2.410834      -1.516701       0.000001
        8      O8               0.049538       4.352502      -0.000001              0.026215       2.303245      -0.000000
        9      H9               0.440498      -4.996172       0.000001              0.233102      -2.643860       0.000000
       10      H10              3.852209       1.737653       0.000001              2.038501       0.919527       0.000000
       11      C11             -4.791841       1.893693      -0.000000             -2.535733       1.002099      -0.000000
       12      H12             -3.610286      -3.211993       0.000001             -1.910481      -1.699714       0.000001
       13      H13             -6.341207       0.553306      -0.000001             -3.355622       0.292797      -0.000000
       14      H14             -4.969356       3.096538       1.648987             -2.629670       1.638617       0.872607
       15      H15             -4.969356       3.096538      -1.648988             -2.629670       1.638618      -0.872607

                    *************************************** 
                    *    InterNuclear Distances / Bohr    * 
                    *************************************** 

               1 N1            2 C2            3 N3            4 C4            5 C5            6 C6    
    1 N1       0.000000
    2 C2       2.584209        0.000000
    3 N3       4.324443        2.589207        0.000000
    4 C4       5.225457        4.675445        2.620405        0.000000
    5 C5       4.495740        5.394542        4.553923        2.780358        0.000000
    6 C6       2.602888        4.567509        5.050886        4.529531        2.512784        0.000000
    7 O7       4.261210        2.257694        4.270898        6.722816        7.652088        6.640395
    8 O8       7.480320        6.675990        4.239271        2.258551        4.467879        6.634312
    9 H9       1.877714        3.793865        6.011055        7.102917        6.180938        3.916172
   10 H10      6.019342        3.808543        1.884371        3.850714        6.258918        6.935255
   11 C11      7.150093        8.232055        7.144224        4.814051        2.838692        4.738545
   12 H12      3.913673        6.306472        7.071067        6.428070        3.983927        2.029054
   13 H13      7.593192        9.202770        8.600673        6.543257        4.048661        4.993151
   14 H14      8.318645        9.140573        7.780159        5.347705        4.047353        6.073111
   15 H15      8.318646        9.140571        7.780159        5.347708        4.047353        6.073111

               7 O7            8 O8            9 H9           10 H10          11 C11          12 H12   
    7 O7       0.000000
    8 O8       8.509729        0.000000
    9 H9       4.633880        9.356845        0.000000
   10 H10      4.657260        4.614947        7.548786        0.000000
   11 C11     10.489748        5.429981        8.651451        8.645458        0.000000
   12 H12      8.173423        8.403327        4.426301        8.954765        5.240621        0.000000
   13 H13     11.420937        7.434750        8.762889       10.261988        2.048700        4.651388
   14 H14     11.357893        5.430093        9.873076        9.076659        2.048782        6.660616
   15 H15     11.357893        5.430092        9.873077        9.076659        2.048782        6.660617

              13 H13          14 H14          15 H15   
   13 H13      0.000000
   14 H14      3.327035        0.000000
   15 H15      3.327035        3.297975        0.000000

                    ******************************************* 
                    *    InterNuclear Distances / Angstrom    * 
                    ******************************************* 

               1 N1            2 C2            3 N3            4 C4            5 C5            6 C6    
    1 N1       0.000000
    2 C2       1.367504        0.000000
    3 N3       2.288397        1.370149        0.000000
    4 C4       2.765193        2.474139        1.386659        0.000000
    5 C5       2.379043        2.854668        2.409832        1.471302        0.000000
    6 C6       1.377389        2.417022        2.672814        2.396925        1.329708        0.000000
    7 O7       2.254935        1.194720        2.260062        3.557561        4.049310        3.513946
    8 O8       3.958415        3.532782        2.243326        1.195174        2.364300        3.510727
    9 H9       0.993643        2.007627        3.180913        3.758702        3.270811        2.072349
   10 H10      3.185298        2.015394        0.997166        2.037710        3.312077        3.669979
   11 C11      3.783666        4.356216        3.780560        2.547486        1.502171        2.507530
   12 H12      2.071026        3.337241        3.741848        3.401588        2.108203        1.073729
   13 H13      4.018144        4.869896        4.551280        3.462542        2.142459        2.642262
   14 H14      4.402038        4.836983        4.117083        2.829884        2.141767        3.213752
   15 H15      4.402038        4.836982        4.117083        2.829885        2.141767        3.213752

               7 O7            8 O8            9 H9           10 H10          11 C11          12 H12   
    7 O7       0.000000
    8 O8       4.503154        0.000000
    9 H9       2.452144        4.951429        0.000000
   10 H10      2.464516        2.442125        3.994646        0.000000
   11 C11      5.550936        2.873422        4.578151        4.574979        0.000000
   12 H12      4.325189        4.446849        2.342298        4.738658        2.773217        0.000000
   13 H13      6.043700        3.934300        4.637121        5.430410        1.084125        2.461409
   14 H14      6.010338        2.873481        5.224607        4.803161        1.084169        3.524646
   15 H15      6.010338        2.873481        5.224607        4.803161        1.084169        3.524646

              13 H13          14 H14          15 H15   
   13 H13      0.000000
   14 H14      1.760591        0.000000
   15 H15      1.760591        1.745213        0.000000

                    ************************************** 
                    *    Valence Bond Angles / Degree    * 
                    ************************************** 
                          Atom centers                 Phi
                      2 C2       1 N1       6 C6       123.42
                      2 C2       1 N1       9 H9       115.57
                      6 C6       1 N1       9 H9       121.01
                      1 N1       2 C2       3 N3       113.42
                      1 N1       2 C2       7 O7       123.16
                      3 N3       2 C2       7 O7       123.42
                      2 C2       3 N3       4 C4       127.65
                      2 C2       3 N3      10 H10      115.82
                      4 C4       3 N3      10 H10      116.53
                      3 N3       4 C4       5 C5       114.93
                      3 N3       4 C4       8 O8       120.48
                      5 C5       4 C4       8 O8       124.59
                      4 C4       5 C5       6 C6       117.59
                      4 C4       5 C5      11 C11      117.90
                      6 C6       5 C5      11 C11      124.51
                      1 N1       6 C6       5 C5       122.99
                      1 N1       6 C6      12 H12      114.77
                      5 C5       6 C6      12 H12      122.24
                      5 C5      11 C11     13 H13      110.83
                      5 C5      11 C11     14 H14      110.77
                      5 C5      11 C11     15 H15      110.77
                     13 H13     11 C11     14 H14      108.58
                     13 H13     11 C11     15 H15      108.58
                     14 H14     11 C11     15 H15      107.19

           ***************************************************************
           *              Valence Dihedral Angles / Degree               *
           ***************************************************************
                    Atom centers                       Phi1     Phi2     Theta 
           6 C6       1 N1       2 C2       7 O7        123.42   123.16   180.00
           2 C2       1 N1       6 C6       5 C5        123.42   122.99    -0.00
           2 C2       1 N1       6 C6      12 H12       123.42   114.77   180.00
           9 H9       1 N1       6 C6      12 H12       121.01   114.77     0.00
           3 N3       2 C2       1 N1       6 C6        113.42   123.42     0.00
           3 N3       2 C2       1 N1       9 H9        113.42   115.57  -180.00
           7 O7       2 C2       1 N1       9 H9        123.16   115.57    -0.00
           1 N1       2 C2       3 N3       4 C4        113.42   127.65    -0.00
           1 N1       2 C2       3 N3      10 H10       113.42   115.82   180.00
           7 O7       2 C2       3 N3      10 H10       123.42   115.82     0.00
           4 C4       3 N3       2 C2       7 O7        127.65   123.42  -180.00
           2 C2       3 N3       4 C4       5 C5        127.65   114.93    -0.00
           2 C2       3 N3       4 C4       8 O8        127.65   120.48  -180.00
           5 C5       4 C4       3 N3      10 H10       114.93   116.53   180.00
           8 O8       4 C4       3 N3      10 H10       120.48   116.53     0.00
           3 N3       4 C4       5 C5       6 C6        114.93   117.59     0.00
           3 N3       4 C4       5 C5      11 C11       114.93   117.90  -180.00
           8 O8       4 C4       5 C5      11 C11       124.59   117.90    -0.00
           6 C6       5 C5       4 C4       8 O8        117.59   124.59   180.00
           4 C4       5 C5       6 C6      12 H12       117.59   122.24   180.00
          11 C11      5 C5       6 C6      12 H12       124.51   122.24     0.00
           4 C4       5 C5      11 C11     13 H13       117.90   110.83  -180.00
           4 C4       5 C5      11 C11     14 H14       117.90   110.77   -59.41
           4 C4       5 C5      11 C11     15 H15       117.90   110.77    59.41
           6 C6       5 C5      11 C11     13 H13       124.51   110.83    -0.00
           6 C6       5 C5      11 C11     14 H14       124.51   110.77   120.59
           6 C6       5 C5      11 C11     15 H15       124.51   110.77  -120.59
           5 C5       6 C6       1 N1       9 H9        122.99   121.01  -180.00
           1 N1       6 C6       5 C5       4 C4        122.99   117.59    -0.00
           1 N1       6 C6       5 C5      11 C11       122.99   124.51  -180.00
--


++    Isotope specification:
      ----------------------

 Center
 Type   Z    A    mass (Da)
 --------------------------
    1   7   14    14.003074
    2   6   12    12.000000
    3   7   14    14.003074
    4   6   12    12.000000
    5   8   16    15.994915
    6   1    1     1.007825
    7   6   12    12.000000
    8   1    1     1.007825
--


++    Rigid rotor info:
      -----------------


                    Total mass (a) : 126.04293

                    Center of mass 
                          X          Y   
                       0.12123   -0.00370   -0.00000

                    Reference system based on center of mass
                    Coordinates and Masses of Atoms, in au and A
                          X          Y          Z        Mass
                       0.18115   -3.11985    0.00000   14.00307
                       2.42380   -1.83584   -0.00000   12.00000
                       2.13634    0.73736    0.00000   14.00307
                      -0.10320    2.09787    0.00000   12.00000
                      -2.41378    0.55139   -0.00000   12.00000
                      -2.14236   -1.94669    0.00000   12.00000
                       4.43458   -2.86245    0.00000   15.99491
                      -0.07170    4.35620   -0.00000   15.99491
                       0.31926   -4.99247    0.00000    1.00783
                       3.73098    1.74135    0.00000    1.00783
                      -4.91307    1.89739   -0.00000   12.00000
                      -3.73152   -3.20830    0.00000    1.00783
                      -6.46244    0.55700   -0.00000    1.00783
                      -5.09059    3.10024    1.64899    1.00783
                      -5.09059    3.10024   -1.64899    1.00783

                    The Moment of Inertia Tensor / au
                                     X          Y        Z     
                    X             0.1509E+07
                    Y             0.6309E+06 0.1809E+07
                    Z             0.3419E-01-0.1197E+00 0.3298E+07

                    The Principal Axes and Moments of Inertia (au)
                    Eigenvalues : 0.3298E+07 0.2307E+07 0.1010E+07
                                     X'         Y'       Z'    
                    Eigenvectors:
                    X            -0.1086E-07 0.6200E+00 0.7846E+00
                    Y            -0.8499E-07 0.7846E+00-0.6200E+00
                    Z             0.1000E+01 0.7341E-07-0.4417E-07

                    The Rotational Constants
                            (cm-1)            (GHz)
                              0.033            0.998
                              0.048            1.426
                              0.109            3.256


                    *******************************************
                    *                                         *
                    * R I G I D - R O T O R   A N A L Y S I S *
                    *                                         *
                    *******************************************

                    j(Max):  5

                    Rotor Type: Linear Rotor
                    Asymmetry parameter: -0.621
                    Prolate = -1
                    Oblate  =  1


                    Rotational energies / cm-1

                    E(J= 0,kappa= 0) =        0.000

                    E(J= 1,kappa=-1) =        0.081
                    E(J= 1,kappa= 0) =        0.142
                    E(J= 1,kappa= 1) =        0.156

                    E(J= 2,kappa=-2) =        0.240
                    E(J= 2,kappa=-1) =        0.289
                    E(J= 2,kappa= 0) =        0.332
                    E(J= 2,kappa= 1) =        0.515
                    E(J= 2,kappa= 2) =        0.517

                    E(J= 3,kappa=-3) =        0.474
                    E(J= 3,kappa=-2) =        0.509
                    E(J= 3,kappa=-1) =        0.595
                    E(J= 3,kappa= 0) =        0.758
                    E(J= 3,kappa= 1) =        0.769
                    E(J= 3,kappa= 2) =        1.100
                    E(J= 3,kappa= 3) =        1.100

                    E(J= 4,kappa=-4) =        0.778
                    E(J= 4,kappa=-3) =        0.800
                    E(J= 4,kappa=-2) =        0.941
                    E(J= 4,kappa=-1) =        1.079
                    E(J= 4,kappa= 0) =        1.110
                    E(J= 4,kappa= 1) =        1.427
                    E(J= 4,kappa= 2) =        1.429
                    E(J= 4,kappa= 3) =        1.901
                    E(J= 4,kappa= 4) =        1.901

                    E(J= 5,kappa=-5) =        1.148
                    E(J= 5,kappa=-4) =        1.161
                    E(J= 5,kappa=-3) =        1.369
                    E(J= 5,kappa=-2) =        1.479
                    E(J= 5,kappa=-1) =        1.543
                    E(J= 5,kappa= 0) =        1.837
                    E(J= 5,kappa= 1) =        1.843
                    E(J= 5,kappa= 2) =        2.310
                    E(J= 5,kappa= 3) =        2.310
                    E(J= 5,kappa= 4) =        2.919
                    E(J= 5,kappa= 5) =        2.919
--


++    Primitive basis info:
      ---------------------


                    *****************************************************
                    ******** Primitive Basis Functions (Valence) ********
                    *****************************************************


 Basis set:N.6-31G**.........                                                              

                  Type         
                   s
           No.      Exponent    Contraction Coefficients
            1  0.417351146D+04   0.001835   0.000000   0.000000
            2  0.627457911D+03   0.013995   0.000000   0.000000
            3  0.142902093D+03   0.068587   0.000000   0.000000
            4  0.402343293D+02   0.232241   0.000000   0.000000
            5  0.128202129D+02   0.469070   0.000000   0.000000
            6  0.116263619D+02   0.000000  -0.114961   0.000000
            7  0.439043701D+01   0.360455   0.000000   0.000000
            8  0.271627981D+01   0.000000  -0.169117   0.000000
            9  0.772218397D+00   0.000000   1.145852   0.000000
           10  0.212031497D+00   0.000000   0.000000   1.000000

                  Type         
                   p
           No.      Exponent    Contraction Coefficients
           11  0.116263619D+02   0.067580   0.000000
           12  0.271627981D+01   0.323907   0.000000
           13  0.772218397D+00   0.740895   0.000000
           14  0.212031497D+00   0.000000   1.000000

                  Type         
                   d
           No.      Exponent    Contraction Coefficients
           15  0.800000000D+00   1.000000


 Basis set:C.6-31G**.........                                                              

                  Type         
                   s
           No.      Exponent    Contraction Coefficients
           16  0.304752488D+04   0.001835   0.000000   0.000000
           17  0.457369518D+03   0.014037   0.000000   0.000000
           18  0.103948685D+03   0.068843   0.000000   0.000000
           19  0.292101553D+02   0.232184   0.000000   0.000000
           20  0.928666296D+01   0.467941   0.000000   0.000000
           21  0.786827235D+01   0.000000  -0.119332   0.000000
           22  0.316392696D+01   0.362312   0.000000   0.000000
           23  0.188128854D+01   0.000000  -0.160854   0.000000
           24  0.544249258D+00   0.000000   1.143456   0.000000
           25  0.168714478D+00   0.000000   0.000000   1.000000

                  Type         
                   p
           No.      Exponent    Contraction Coefficients
           26  0.786827235D+01   0.068999   0.000000
           27  0.188128854D+01   0.316424   0.000000
           28  0.544249258D+00   0.744308   0.000000
           29  0.168714478D+00   0.000000   1.000000

                  Type         
                   d
           No.      Exponent    Contraction Coefficients
           30  0.800000000D+00   1.000000


 Basis set:N.6-31G**.........                                                              

                  Type         
                   s
           No.      Exponent    Contraction Coefficients
           31  0.417351146D+04   0.001835   0.000000   0.000000
           32  0.627457911D+03   0.013995   0.000000   0.000000
           33  0.142902093D+03   0.068587   0.000000   0.000000
           34  0.402343293D+02   0.232241   0.000000   0.000000
           35  0.128202129D+02   0.469070   0.000000   0.000000
           36  0.116263619D+02   0.000000  -0.114961   0.000000
           37  0.439043701D+01   0.360455   0.000000   0.000000
           38  0.271627981D+01   0.000000  -0.169117   0.000000
           39  0.772218397D+00   0.000000   1.145852   0.000000
           40  0.212031497D+00   0.000000   0.000000   1.000000

                  Type         
                   p
           No.      Exponent    Contraction Coefficients
           41  0.116263619D+02   0.067580   0.000000
           42  0.271627981D+01   0.323907   0.000000
           43  0.772218397D+00   0.740895   0.000000
           44  0.212031497D+00   0.000000   1.000000

                  Type         
                   d
           No.      Exponent    Contraction Coefficients
           45  0.800000000D+00   1.000000


 Basis set:C.6-31G**.........                                                              

                  Type         
                   s
           No.      Exponent    Contraction Coefficients
           46  0.304752488D+04   0.001835   0.000000   0.000000
           47  0.457369518D+03   0.014037   0.000000   0.000000
           48  0.103948685D+03   0.068843   0.000000   0.000000
           49  0.292101553D+02   0.232184   0.000000   0.000000
           50  0.928666296D+01   0.467941   0.000000   0.000000
           51  0.786827235D+01   0.000000  -0.119332   0.000000
           52  0.316392696D+01   0.362312   0.000000   0.000000
           53  0.188128854D+01   0.000000  -0.160854   0.000000
           54  0.544249258D+00   0.000000   1.143456   0.000000
           55  0.168714478D+00   0.000000   0.000000   1.000000

                  Type         
                   p
           No.      Exponent    Contraction Coefficients
           56  0.786827235D+01   0.068999   0.000000
           57  0.188128854D+01   0.316424   0.000000
           58  0.544249258D+00   0.744308   0.000000
           59  0.168714478D+00   0.000000   1.000000

                  Type         
                   d
           No.      Exponent    Contraction Coefficients
           60  0.800000000D+00   1.000000


 Basis set:O.6-31G**.........                                                              

                  Type         
                   s
           No.      Exponent    Contraction Coefficients
           91  0.548467166D+04   0.001831   0.000000   0.000000
           92  0.825234946D+03   0.013950   0.000000   0.000000
           93  0.188046958D+03   0.068445   0.000000   0.000000
           94  0.529645000D+02   0.232714   0.000000   0.000000
           95  0.168975704D+02   0.470193   0.000000   0.000000
           96  0.155396162D+02   0.000000  -0.110778   0.000000
           97  0.579963534D+01   0.358521   0.000000   0.000000
           98  0.359993359D+01   0.000000  -0.148026   0.000000
           99  0.101376175D+01   0.000000   1.130767   0.000000
          100  0.270005823D+00   0.000000   0.000000   1.000000

                  Type         
                   p
           No.      Exponent    Contraction Coefficients
          101  0.155396162D+02   0.070874   0.000000
          102  0.359993359D+01   0.339753   0.000000
          103  0.101376175D+01   0.727159   0.000000
          104  0.270005823D+00   0.000000   1.000000

                  Type         
                   d
           No.      Exponent    Contraction Coefficients
          105  0.800000000D+00   1.000000


 Basis set:H.6-31G**.........                                                              

                  Type         
                   s
           No.      Exponent    Contraction Coefficients
          121  0.187311370D+02   0.033495   0.000000
          122  0.282539437D+01   0.234727   0.000000
          123  0.640121692D+00   0.813757   0.000000
          124  0.161277759D+00   0.000000   1.000000

                  Type         
                   p
           No.      Exponent    Contraction Coefficients
          125  0.110000000D+01   1.000000


 Basis set:C.6-31G**.........                                                              

                  Type         
                   s
           No.      Exponent    Contraction Coefficients
          131  0.304752488D+04   0.001835   0.000000   0.000000
          132  0.457369518D+03   0.014037   0.000000   0.000000
          133  0.103948685D+03   0.068843   0.000000   0.000000
          134  0.292101553D+02   0.232184   0.000000   0.000000
          135  0.928666296D+01   0.467941   0.000000   0.000000
          136  0.786827235D+01   0.000000  -0.119332   0.000000
          137  0.316392696D+01   0.362312   0.000000   0.000000
          138  0.188128854D+01   0.000000  -0.160854   0.000000
          139  0.544249258D+00   0.000000   1.143456   0.000000
          140  0.168714478D+00   0.000000   0.000000   1.000000

                  Type         
                   p
           No.      Exponent    Contraction Coefficients
          141  0.786827235D+01   0.068999   0.000000
          142  0.188128854D+01   0.316424   0.000000
          143  0.544249258D+00   0.744308   0.000000
          144  0.168714478D+00   0.000000   1.000000

                  Type         
                   d
           No.      Exponent    Contraction Coefficients
          145  0.800000000D+00   1.000000


 Basis set:H.6-31G**.........                                                              

                  Type         
                   s
           No.      Exponent    Contraction Coefficients
          146  0.187311370D+02   0.033495   0.000000
          147  0.282539437D+01   0.234727   0.000000
          148  0.640121692D+00   0.813757   0.000000
          149  0.161277759D+00   0.000000   1.000000

                  Type         
                   p
           No.      Exponent    Contraction Coefficients
          150  0.110000000D+01   1.000000

  Number of primitives                                  294
  Number of basis functions                             165

--


++    SO/AO info:
      -----------

                    **************************************************
                    ********** Petite list Basis Functions ***********
                    **************************************************


           Basis functions generated by E  

 Basis Label        Type   Center
    1  N1            1s       1
    2  N1            2s       1
    3  N1            *s       1
    4  N1            2px      1
    5  N1            *px      1
    6  N1            2py      1
    7  N1            *py      1
    8  N1            2pz      1
    9  N1            *pz      1
   10  N1            *200     1
   11  N1            *110     1
   12  N1            *101     1
   13  N1            *020     1
   14  N1            *011     1
   15  N1            *002     1
   16  C2            1s       2
   17  C2            2s       2
   18  C2            *s       2
   19  C2            2px      2
   20  C2            *px      2
   21  C2            2py      2
   22  C2            *py      2
   23  C2            2pz      2
   24  C2            *pz      2
   25  C2            *200     2
   26  C2            *110     2
   27  C2            *101     2
   28  C2            *020     2
   29  C2            *011     2
   30  C2            *002     2
   31  N3            1s       3
   32  N3            2s       3
   33  N3            *s       3
   34  N3            2px      3
   35  N3            *px      3
   36  N3            2py      3
   37  N3            *py      3
   38  N3            2pz      3
   39  N3            *pz      3
   40  N3            *200     3
   41  N3            *110     3
   42  N3            *101     3
   43  N3            *020     3
   44  N3            *011     3
   45  N3            *002     3
   46  C4            1s       4
   47  C4            2s       4
   48  C4            *s       4
   49  C4            2px      4
   50  C4            *px      4
   51  C4            2py      4
   52  C4            *py      4
   53  C4            2pz      4
   54  C4            *pz      4
   55  C4            *200     4
   56  C4            *110     4
   57  C4            *101     4
   58  C4            *020     4
   59  C4            *011     4
   60  C4            *002     4
   61  C5            1s       5
   62  C5            2s       5
   63  C5            *s       5
   64  C5            2px      5
   65  C5            *px      5
   66  C5            2py      5
   67  C5            *py      5
   68  C5            2pz      5
   69  C5            *pz      5
   70  C5            *200     5
   71  C5            *110     5
   72  C5            *101     5
   73  C5            *020     5
   74  C5            *011     5
   75  C5            *002     5
   76  C6            1s       6
   77  C6            2s       6
   78  C6            *s       6
   79  C6            2px      6
   80  C6            *px      6
   81  C6            2py      6
   82  C6            *py      6
   83  C6            2pz      6
   84  C6            *pz      6
   85  C6            *200     6
   86  C6            *110     6
   87  C6            *101     6
   88  C6            *020     6
   89  C6            *011     6
   90  C6            *002     6
   91  O7            1s       7
   92  O7            2s       7
   93  O7            *s       7
   94  O7            2px      7
   95  O7            *px      7
   96  O7            2py      7
   97  O7            *py      7
   98  O7            2pz      7
   99  O7            *pz      7
  100  O7            *200     7
  101  O7            *110     7
  102  O7            *101     7
  103  O7            *020     7
  104  O7            *011     7
  105  O7            *002     7
  106  O8            1s       8
  107  O8            2s       8
  108  O8            *s       8
  109  O8            2px      8
  110  O8            *px      8
  111  O8            2py      8
  112  O8            *py      8
  113  O8            2pz      8
  114  O8            *pz      8
  115  O8            *200     8
  116  O8            *110     8
  117  O8            *101     8
  118  O8            *020     8
  119  O8            *011     8
  120  O8            *002     8
  121  H9            1s       9
  122  H9            *s       9
  123  H9            *px      9
  124  H9            *py      9
  125  H9            *pz      9
  126  H10           1s      10
  127  H10           *s      10
  128  H10           *px     10
  129  H10           *py     10
  130  H10           *pz     10
  131  C11           1s      11
  132  C11           2s      11
  133  C11           *s      11
  134  C11           2px     11
  135  C11           *px     11
  136  C11           2py     11
  137  C11           *py     11
  138  C11           2pz     11
  139  C11           *pz     11
  140  C11           *200    11
  141  C11           *110    11
  142  C11           *101    11
  143  C11           *020    11
  144  C11           *011    11
  145  C11           *002    11
  146  H12           1s      12
  147  H12           *s      12
  148  H12           *px     12
  149  H12           *py     12
  150  H12           *pz     12
  151  H13           1s      13
  152  H13           *s      13
  153  H13           *px     13
  154  H13           *py     13
  155  H13           *pz     13
  156  H14           1s      14
  157  H14           *s      14
  158  H14           *px     14
  159  H14           *py     14
  160  H14           *pz     14
  161  H15           1s      15
  162  H15           *s      15
  163  H15           *px     15
  164  H15           *py     15
  165  H15           *pz     15

      Basis set specifications :
      Symmetry species        a  
      Basis functions         165
--


            Nuclear Potential Energy            443.14562919 au

--- Stop Module: gateway at Tue Apr  4 16:58:21 2023 /rc=_RC_ALL_IS_WELL_ ---
*** files: caspt2_2.RICDLib xmldump
    saved to directory /home/marlenne/thymine/Thymine/MOLCAS/3.Ground_State/2.GS_planar/CASPT2

--- Start Module: seward at Tue Apr  4 16:58:21 2023 ---

()()()()()()()()()()()()()()()()()()()()()()()()()()()()()()()()()()()()()()()()()()()()()()()()()()

                                              &SEWARD

                                   only a single process is used
                       available to each process: 4.0 GB of memory, 1 thread?
                                             pid: 23534
()()()()()()()()()()()()()()()()()()()()()()()()()()()()()()()()()()()()()()()()()()()()()()()()()()


  Weights used for alignment and distance                     
  mat. size =    15x    1
       14.0030740044299993
       12.0000000000000000
       14.0030740044299993
       12.0000000000000000
       12.0000000000000000
       12.0000000000000000
       15.9949146195700003
       15.9949146195700003
        1.0078250322300000
        1.0078250322300000
       12.0000000000000000
        1.0078250322300000
        1.0078250322300000
        1.0078250322300000
        1.0078250322300000

               SEWARD will generate:
                  Multipole Moment integrals up to order  2
                  Kinetic Energy integrals
                  Nuclear Attraction integrals (point charge)
                  One-Electron Hamiltonian integrals
                  Velocity integrals
                  Orbital angular momentum around ( 0.1212 -0.0037 -0.0000 )
                  Velocity quadrupole around ( 0.1212 -0.0037 -0.0000 )
                  RI decomposed two-electron repulsion integrals stored Cholesky style
                   - acCD auxiliary basis
                   - CD Threshold:   0.10E-03

                   Integrals are discarded if absolute value <: 0.10E-13
                   Integral cutoff threshold is set to       <: 0.10E-15

++    SO/AO info:
      -----------

                    **************************************************
                    ********** Petite list Basis Functions ***********
                    **************************************************


           Basis functions generated by E  

 Basis Label        Type   Center
    1  N1            1s       1
    2  N1            2s       1
    3  N1            *s       1
    4  N1            2px      1
    5  N1            *px      1
    6  N1            2py      1
    7  N1            *py      1
    8  N1            2pz      1
    9  N1            *pz      1
   10  N1            *200     1
   11  N1            *110     1
   12  N1            *101     1
   13  N1            *020     1
   14  N1            *011     1
   15  N1            *002     1
   16  C2            1s       2
   17  C2            2s       2
   18  C2            *s       2
   19  C2            2px      2
   20  C2            *px      2
   21  C2            2py      2
   22  C2            *py      2
   23  C2            2pz      2
   24  C2            *pz      2
   25  C2            *200     2
   26  C2            *110     2
   27  C2            *101     2
   28  C2            *020     2
   29  C2            *011     2
   30  C2            *002     2
   31  N3            1s       3
   32  N3            2s       3
   33  N3            *s       3
   34  N3            2px      3
   35  N3            *px      3
   36  N3            2py      3
   37  N3            *py      3
   38  N3            2pz      3
   39  N3            *pz      3
   40  N3            *200     3
   41  N3            *110     3
   42  N3            *101     3
   43  N3            *020     3
   44  N3            *011     3
   45  N3            *002     3
   46  C4            1s       4
   47  C4            2s       4
   48  C4            *s       4
   49  C4            2px      4
   50  C4            *px      4
   51  C4            2py      4
   52  C4            *py      4
   53  C4            2pz      4
   54  C4            *pz      4
   55  C4            *200     4
   56  C4            *110     4
   57  C4            *101     4
   58  C4            *020     4
   59  C4            *011     4
   60  C4            *002     4
   61  C5            1s       5
   62  C5            2s       5
   63  C5            *s       5
   64  C5            2px      5
   65  C5            *px      5
   66  C5            2py      5
   67  C5            *py      5
   68  C5            2pz      5
   69  C5            *pz      5
   70  C5            *200     5
   71  C5            *110     5
   72  C5            *101     5
   73  C5            *020     5
   74  C5            *011     5
   75  C5            *002     5
   76  C6            1s       6
   77  C6            2s       6
   78  C6            *s       6
   79  C6            2px      6
   80  C6            *px      6
   81  C6            2py      6
   82  C6            *py      6
   83  C6            2pz      6
   84  C6            *pz      6
   85  C6            *200     6
   86  C6            *110     6
   87  C6            *101     6
   88  C6            *020     6
   89  C6            *011     6
   90  C6            *002     6
   91  O7            1s       7
   92  O7            2s       7
   93  O7            *s       7
   94  O7            2px      7
   95  O7            *px      7
   96  O7            2py      7
   97  O7            *py      7
   98  O7            2pz      7
   99  O7            *pz      7
  100  O7            *200     7
  101  O7            *110     7
  102  O7            *101     7
  103  O7            *020     7
  104  O7            *011     7
  105  O7            *002     7
  106  O8            1s       8
  107  O8            2s       8
  108  O8            *s       8
  109  O8            2px      8
  110  O8            *px      8
  111  O8            2py      8
  112  O8            *py      8
  113  O8            2pz      8
  114  O8            *pz      8
  115  O8            *200     8
  116  O8            *110     8
  117  O8            *101     8
  118  O8            *020     8
  119  O8            *011     8
  120  O8            *002     8
  121  H9            1s       9
  122  H9            *s       9
  123  H9            *px      9
  124  H9            *py      9
  125  H9            *pz      9
  126  H10           1s      10
  127  H10           *s      10
  128  H10           *px     10
  129  H10           *py     10
  130  H10           *pz     10
  131  C11           1s      11
  132  C11           2s      11
  133  C11           *s      11
  134  C11           2px     11
  135  C11           *px     11
  136  C11           2py     11
  137  C11           *py     11
  138  C11           2pz     11
  139  C11           *pz     11
  140  C11           *200    11
  141  C11           *110    11
  142  C11           *101    11
  143  C11           *020    11
  144  C11           *011    11
  145  C11           *002    11
  146  H12           1s      12
  147  H12           *s      12
  148  H12           *px     12
  149  H12           *py     12
  150  H12           *pz     12
  151  H13           1s      13
  152  H13           *s      13
  153  H13           *px     13
  154  H13           *py     13
  155  H13           *pz     13
  156  H14           1s      14
  157  H14           *s      14
  158  H14           *px     14
  159  H14           *py     14
  160  H14           *pz     14
  161  H15           1s      15
  162  H15           *s      15
  163  H15           *px     15
  164  H15           *py     15
  165  H15           *pz     15

      Basis set specifications :
      Symmetry species        a  
      Basis functions         165
--


            Nuclear Potential Energy            443.14562919 au


      Basis set specifications :
      Symmetry species         a  
      Basis functions          165


Seward processing 2-center and 3-center ERIs

 2-center integrals:
      CPU time :    0.18 sec.
      Wall time:    0.20 sec.
 3-center integrals:
      CPU time :    1.18 sec.
      Wall time:    1.20 sec.
 Block-transpose:
      CPU time :    0.03 sec.
      Wall time:    0.07 sec.
 Diagonal vector:
      CPU time :    0.03 sec.
      Wall time:    0.04 sec.
      RI vectors               720



      Input file to MOLDEN was generated!

++ I/O STATISTICS
 
  I. General I/O information
  - - - - - - - - - - - - - - - - - - - - - - - - - - - - - - - - - - - - - - - - - - -
  Unit  Name          Flsize      Write/Read            MBytes           Write/Read
                      (MBytes)       Calls              In/Out           Time, sec.
  - - - - - - - - - - - - - - - - - - - - - - - - - - - - - - - - - - - - - - - - - - -
   1  RUNFILE           0.70 .    1386/    7892 .     10.2/     57.9 .       0/       0
   2  NQGRID            0.00 .       4/       0 .      0.0/      0.0 .       0/       0
   3  ONEINT            4.40 .      62/     110 .     47.6/     17.0 .       0/       0
   4  AVEC00            0.00 .     721/    1441 .      5.9/     11.9 .       0/       0
   5  ZMAT00            0.00 .       1/       0 .      4.0/      0.0 .       0/       0
   6  AMAT00            1.98 .       2/       1 .      4.0/      2.0 .       0/       0
   7  QMAT00            0.00 .       1/       1 .      2.0/      2.0 .       0/       0
   8  QVEC00            3.96 .     720/       1 .      4.0/      4.0 .       0/       0
   9  RVEC00           74.59 .     770/     770 .     74.6/     74.6 .       0/       0
  10  CHRED             0.22 .       4/       0 .      0.2/      0.0 .       0/       0
  11  CHVEC1           74.59 .       1/       0 .     74.6/      0.0 .       0/       0
  12  CHORST            0.03 .      12/       0 .      0.0/      0.0 .       0/       0
  13  CHOMAP            0.01 .       1/       0 .      0.0/      0.0 .       0/       0
  14  CHODIAG           0.10 .       1/       0 .      0.1/      0.0 .       0/       0
  - - - - - - - - - - - - - - - - - - - - - - - - - - - - - - - - - - - - - - - - - - -
   *  TOTAL           160.56 .    3686/   10216 .    227.1/    169.2 .       0/       0
  - - - - - - - - - - - - - - - - - - - - - - - - - - - - - - - - - - - - - - - - - - -
 
  II. I/O Access Patterns
  - - - - - - - - - - - - - - - - - - - -
  Unit  Name               % of random
                         Write/Read calls
  - - - - - - - - - - - - - - - - - - - -
   1  RUNFILE             28.6/   9.9
   2  NQGRID              25.0/   0.0
   3  ONEINT              95.2/  10.9
   4  AVEC00              99.9/  99.6
   5  ZMAT00               0.0/   0.0
   6  AMAT00              50.0/ 100.0
   7  QMAT00               0.0/ 100.0
   8  QVEC00               0.0/ 100.0
   9  RVEC00               0.0/   0.1
  10  CHRED                0.0/   0.0
  11  CHVEC1               0.0/   0.0
  12  CHORST               0.0/   0.0
  13  CHOMAP               0.0/   0.0
  14  CHODIAG              0.0/   0.0
  - - - - - - - - - - - - - - - - - - - -
--
--- Stop Module: seward at Tue Apr  4 16:58:23 2023 /rc=_RC_ALL_IS_WELL_ ---
*** files: caspt2_2.GssOrb caspt2_2.guessorb.molden xmldump
    saved to directory /home/marlenne/thymine/Thymine/MOLCAS/3.Ground_State/2.GS_planar/CASPT2
--- Module seward spent 2 seconds ---

--- Start Module: rasscf at Tue Apr  4 16:58:23 2023 ---

()()()()()()()()()()()()()()()()()()()()()()()()()()()()()()()()()()()()()()()()()()()()()()()()()()

                                              &RASSCF

                                   only a single process is used
                       available to each process: 4.0 GB of memory, 1 thread?
                                             pid: 23538
()()()()()()()()()()()()()()()()()()()()()()()()()()()()()()()()()()()()()()()()()()()()()()()()()()

  Orbital specification was read from input.

      Header of the ONEINT file:
      --------------------------
      
      Integrals generated by Gateway/Seward, Tue Apr  4 16:58:21 2023


      OrdInt status: non-squared


      Cartesian coordinates in Angstrom:
      -----------------------------------------------------
      No.  Label        X            Y            Z        
      -----------------------------------------------------
       1   N1         0.16001650  -1.65290839   0.00000021
       2   C2         1.34677381  -0.97344133  -0.00000266
       3   N3         1.19465720   0.38823779   0.00000001
       4   C4         0.00954344   1.10818741   0.00000199
       5   C5        -1.21316478   0.28982683  -0.00000051
       6   C6        -1.06953588  -1.03210140   0.00000007
       7   O7         2.41083448  -1.51670136   0.00000062
       8   O8         0.02621457   2.30324465  -0.00000033
       9   H9         0.23310151  -2.64386040   0.00000033
      10   H10        2.03850100   0.91952659   0.00000030
      11   C11       -2.53573289   1.00209932  -0.00000017
      12   H12       -1.91048089  -1.69971376   0.00000072
      13   H13       -3.35562208   0.29279706  -0.00000027
      14   H14       -2.62967001   1.63861747   0.87260658
      15   H15       -2.62966998   1.63861753  -0.87260687
      -----------------------------------------------------
      Nuclear repulsion energy =  443.14562919

++    Wave function specifications:
      -----------------------------

      Number of closed shell electrons          52
      Number of electrons in active shells      14
      Max number of holes in RAS1 space          0
      Max nr of electrons in RAS3 space          0
      Number of inactive orbitals               26
      Number of active orbitals                 10
      Number of secondary orbitals             129
      Spin quantum number                      0.0
      State symmetry                             1
--

++    Orbital specifications:
      -----------------------

      Symmetry species                           1
                                                 a
      Frozen orbitals                            0
      Inactive orbitals                         26
      Active orbitals                           10
      RAS1 orbitals                              0
      RAS2 orbitals                             10
      RAS3 orbitals                              0
      Secondary orbitals                       129
      Deleted orbitals                           0
      Number of basis functions                165
--

++    CI expansion specifications:
      ----------------------------

      Number of CSFs                          4950
      Number of determinants                  7260
      Number of root(s) required                 5
      Root chosen for geometry opt.              5
      CI roots used                              1     2     3     4     5
      weights                                0.200 0.200 0.200 0.200 0.200
      highest root included in the CI            5
      max. size of the explicit Hamiltonian    200
--

++    Optimization specifications:
      ----------------------------

      RASSCF algorithm: LK RI/DF
      Maximum number of macro iterations       200
      Maximum number of SX iterations          100
      Threshold for RASSCF energy            0.100E-05
      Threshold for max MO rotation          0.100E-01
      Threshold for max BLB element          0.100E-01
      Level shift parameter                  0.800E+00
      Make Quasi-Newton update
--

      The MO-coefficients are taken from the file:
      INPORB                                                                                                                                                                                                                                                          
      Title: RASSCF average (pseudo-natural) orbitals                                      

      Total molecular charge    0.00

      Molecular orbitals exchanged:
        In symmetry  1 :  25  28
        In symmetry  1 :  36  40


      ************************************************************************************************************************
      *                                                                                                                      *
      *                                            Wave function control section                                             *
      *                                                                                                                      *
      ************************************************************************************************************************


                                         RASSCF iterations: Energy and convergence statistics
                                         ----------------------------------------------------

      Iter CI   SX   CI       RASSCF       Energy    max ROT     max BLB   max BLB  Level Ln srch  Step   QN   Walltime
          iter iter root      energy       change     param      element    value   shift minimum  type update hh:mm:ss
 Nr of preliminary CI iterations:   9
        1   1  100    0  -422.46359293    0.00E+00   0.17E+00*  17  70 1  0.23E+01*  1.62   0.00    SX    NO    0:00:04
        2  11  100    0  -440.48731885   -0.18E+02* -0.24E+00*  23  28 1  0.14E+01*  1.02   0.00    SX    NO    0:00:03
        3   7  100    0  -444.69252246   -0.42E+01*  0.14E+00*  22  37 1 -0.62E+00*  0.53   0.00    SX    NO    0:00:02
        4   5  100    0  -447.23559789   -0.25E+01* -0.95E-01*  26  42 1 -0.35E+00*  0.48   0.00    SX    NO    0:00:02
        5   6  100    0  -448.83448136   -0.16E+01* -0.76E-01*  26  38 1  0.31E+00*  0.41   2.42    QN   YES    0:00:02
        6   6  100    0  -449.68618246   -0.85E+00*  0.14E+00*  26  38 1  0.23E+00*  0.32   2.50    QN   YES    0:00:02
        7  17  100    0  -450.29454207   -0.61E+00*  0.94E-01*  36  41 1  0.19E+00*  0.33   2.50    LS   YES    0:00:02
        8  14  100    0  -450.63156880   -0.34E+00*  0.71E-01*  35  41 1  0.22E+00*  0.43   2.30    LS   YES    0:00:02
        9   6  100    0  -450.80388483   -0.17E+00*  0.48E-01*  35  41 1  0.19E+00*  0.46   2.08    QN   YES    0:00:02
       10   9  100    0  -450.94712107   -0.14E+00* -0.63E-01*  35  41 1  0.17E+00*  0.45   1.99    SX   YES    0:00:02
       11  11  100    0  -451.10978060   -0.16E+00* -0.61E-01*  35  41 1  0.13E+00*  0.43   2.50    LS   YES    0:00:02
       12   9  100    0  -451.20958093   -0.10E+00* -0.61E-01*  35  41 1  0.75E-01*  0.42   1.90    QN   YES    0:00:02
       13   8  100    0  -451.26372038   -0.54E-01* -0.29E-01*  36  41 1  0.26E-01*  0.40   1.60    LS   YES    0:00:02
       14   6   31    0  -451.27346556   -0.97E-02* -0.52E-01*  30  41 1  0.15E-01*  0.39   1.34    QN   YES    0:00:01
       15   8   32    0  -451.28302977   -0.96E-02* -0.82E-01*  34  41 1  0.12E-01*  0.39   2.23    QN   YES    0:00:02
       16  10   48    0  -451.29263702   -0.96E-02* -0.63E-01*  35  41 1 -0.12E-01*  0.38   1.76    QN   YES    0:00:02
       17   9   44    0  -451.29770794   -0.51E-02*  0.44E-01*  35  41 1 -0.11E-01*  0.38   1.71    QN   YES    0:00:02
       18  10   44    0  -451.30140274   -0.37E-02*  0.48E-01*  35  41 1 -0.92E-02   0.38   1.84    QN   YES    0:00:02
       19   9   43    0  -451.30536707   -0.40E-02*  0.61E-01*  34  43 1 -0.91E-02   0.37   1.83    QN   YES    0:00:02
       20   9   48    0  -451.30969899   -0.43E-02*  0.63E-01*  36  41 1  0.13E-01*  0.37   1.74    QN   YES    0:00:02
       21   9   49    0  -451.31416400   -0.45E-02*  0.54E-01*  36  41 1  0.15E-01*  0.37   1.72    QN   YES    0:00:02
       22   9   44    0  -451.31869609   -0.45E-02* -0.49E-01*  36  41 1  0.14E-01*  0.36   1.68    QN   YES    0:00:02
       23  10   50    0  -451.32279781   -0.41E-02* -0.39E-01*  36  41 1  0.81E-02   0.37   1.64    QN   YES    0:00:02
       24  11   50    0  -451.32586857   -0.31E-02* -0.44E-01*  36  43 1 -0.79E-02   0.37   1.68    QN   YES    0:00:02
       25  14   47    0  -451.32819322   -0.23E-02* -0.49E-01*  36  43 1 -0.67E-02   0.38   1.82    QN   YES    0:00:02
       26  14   45    0  -451.33032605   -0.21E-02* -0.57E-01*  34  79 1 -0.69E-02   0.38   2.00    QN   YES    0:00:02
       27  14   43    0  -451.33253303   -0.22E-02* -0.56E-01*  35  41 1 -0.63E-02   0.40   1.60    QN   YES    0:00:02
       28  14   43    0  -451.33455566   -0.20E-02*  0.30E-01*  35  79 1  0.67E-02   0.41   1.31    QN   YES    0:00:02
       29  13   42    0  -451.33658666   -0.20E-02*  0.35E-01*  35  79 1  0.63E-02   0.42   1.58    QN   YES    0:00:02
       30  13   36    0  -451.33909729   -0.25E-02*  0.18E-01*  34  79 1  0.85E-02   0.42   1.24    QN   YES    0:00:02
       31  11   43    0  -451.34051089   -0.14E-02*  0.25E-01*  34  41 1 -0.57E-02   0.42   1.31    QN   YES    0:00:02
       32  12   43    0  -451.34159150   -0.11E-02* -0.15E-01*  35  41 1  0.37E-02   0.42   1.01    QN   YES    0:00:02
       33   8   42    0  -451.34246768   -0.88E-03* -0.27E-01*  34  43 1  0.27E-02   0.42   1.82    QN   YES    0:00:02
       34  11   41    0  -451.34358553   -0.11E-02* -0.45E-01*  36  41 1 -0.50E-02   0.41   2.01    QN   YES    0:00:02
       35  11   42    0  -451.34510952   -0.15E-02* -0.89E-01*  36  41 1 -0.79E-02   0.41   2.50    QN   YES    0:00:02
       36  13   35    0  -451.34779682   -0.27E-02* -0.10E+00*  36  41 1 -0.12E-01*  0.40   1.73    QN   YES    0:00:02
       37  10   35    0  -451.34984873   -0.21E-02*  0.29E-01*  36  41 1 -0.14E-01*  0.39   1.02    QN   YES    0:00:02
       38   9   37    0  -451.35223351   -0.24E-02*  0.67E-01*  36  41 1 -0.11E-01*  0.39   2.50    QN   YES    0:00:02
       39  10   43    0  -451.35805727   -0.58E-02* -0.38E-01*  31  41 1  0.56E-02   0.38   1.62    QN   YES    0:00:02
       40   9   42    0  -451.36050691   -0.24E-02*  0.42E-01*  35  43 1  0.48E-02   0.38   1.15    QN   YES    0:00:02
       41  10   43    0  -451.36177597   -0.13E-02*  0.21E-01*  27  41 1  0.47E-02   0.38   1.14    QN   YES    0:00:02
       42   9   43    0  -451.36302651   -0.13E-02*  0.57E-01*  27  41 1  0.46E-02   0.38   2.50    QN   YES    0:00:02
       43  10   42    0  -451.36502140   -0.20E-02* -0.35E-01*  23  28 1  0.37E-02   0.38   1.44    QN   YES    0:00:02
       44  11   42    0  -451.36601573   -0.99E-03*  0.46E-01*  23  28 1  0.41E-02   0.38   1.34    QN   YES    0:00:02
       45  10   42    0  -451.36701042   -0.99E-03* -0.35E-01*  23  28 1  0.32E-02   0.38   1.59    QN   YES    0:00:02
       46  10   42    0  -451.36825669   -0.12E-02*  0.49E-01*  28  43 1  0.25E-02   0.38   1.89    QN   YES    0:00:02
       47  11   42    0  -451.36969083   -0.14E-02*  0.56E-01*  35  79 1 -0.27E-02   0.38   1.68    QN   YES    0:00:02
       48  11   42    0  -451.37103949   -0.13E-02*  0.62E-01*  35  79 1 -0.40E-02   0.37   1.59    QN   YES    0:00:02
       49  12   42    0  -451.37233220   -0.13E-02*  0.45E-01*  35  79 1 -0.39E-02   0.37   1.55    QN   YES    0:00:02
       50  11   39    0  -451.37354160   -0.12E-02*  0.39E-01*  31  43 1 -0.31E-02   0.37   1.44    QN   YES    0:00:02
       51  11   36    0  -451.37433178   -0.79E-03* -0.22E-01*  35  43 1 -0.33E-02   0.36   1.07    QN   YES    0:00:02
       52  10   36    0  -451.37485833   -0.53E-03*  0.78E-02   27  37 1  0.20E-02   0.36   0.98    QN   YES    0:00:02
       53   9   35    0  -451.37516807   -0.31E-03* -0.15E-01*  23  36 1  0.13E-02   0.36   1.68    QN   YES    0:00:02
       54  11   34    0  -451.37544354   -0.28E-03* -0.99E-02   36  41 1 -0.11E-02   0.36   1.13    QN   YES    0:00:02
       55  10   34    0  -451.37557192   -0.13E-03* -0.99E-02   36  43 1  0.94E-03   0.36   1.51    QN   YES    0:00:02
       56  12   34    0  -451.37566532   -0.93E-04*  0.11E-01*  23  28 1 -0.11E-02   0.36   1.59    QN   YES    0:00:02
       57  10   38    0  -451.37573013   -0.65E-04*  0.14E-01*  23  28 1 -0.10E-02   0.36   1.62    QN   YES    0:00:02
       58  12   38    0  -451.37578934   -0.59E-04*  0.24E-01*  23  35 1  0.12E-02   0.36   1.98    QN   YES    0:00:02
       59  13   39    0  -451.37587716   -0.88E-04*  0.42E-01*  23  35 1  0.13E-02   0.36   2.03    QN   YES    0:00:02
       60  14   41    0  -451.37601299   -0.14E-03*  0.75E-01*  23  35 1  0.17E-02   0.36   2.20    QN   YES    0:00:02
       61  15   46    0  -451.37624614   -0.23E-03*  0.11E+00*  23  35 1  0.22E-02   0.36   1.87    QN   YES    0:00:02
       62  15   47    0  -451.37656909   -0.32E-03*  0.10E+00*  23  35 1  0.30E-02   0.35   1.50    QN   YES    0:00:02
       63  14   46    0  -451.37696616   -0.40E-03*  0.11E+00*  23  35 1  0.30E-02   0.35   1.71    QN   YES    0:00:02
       64  12   45    0  -451.37762871   -0.66E-03*  0.11E+00*  23  36 1  0.25E-02   0.35   1.90    QN   YES    0:00:02
       65   9   46    0  -451.37862894   -0.10E-02*  0.10E+00*  23  36 1  0.33E-02   0.35   2.02    QN   YES    0:00:02
       66  11   45    0  -451.37983344   -0.12E-02* -0.11E+00*  23  28 1  0.37E-02   0.35   2.08    QN   YES    0:00:02
       67  11   44    0  -451.38110050   -0.13E-02* -0.98E-01*  23  28 1  0.43E-02   0.36   1.96    QN   YES    0:00:02
       68  11   43    0  -451.38233785   -0.12E-02* -0.62E-01*  23  28 1  0.45E-02   0.36   1.67    QN   YES    0:00:02
       69  11   42    0  -451.38337977   -0.10E-02* -0.32E-01*  23  28 1  0.39E-02   0.37   1.62    QN   YES    0:00:02
       70  10   41    0  -451.38425379   -0.87E-03*  0.23E-01*  23  28 1  0.30E-02   0.37   1.68    QN   YES    0:00:02
       71   9   39    0  -451.38487173   -0.62E-03*  0.17E-01*  23  28 1  0.21E-02   0.37   1.61    QN   YES    0:00:02
       72   6   38    0  -451.38520815   -0.34E-03*  0.26E-01*  23  28 1  0.16E-02   0.37   1.67    QN   YES    0:00:02
       73   7   38    0  -451.38540612   -0.20E-03* -0.29E-01*  23  28 1  0.98E-03   0.36   1.58    QN   YES    0:00:02
       74  11   36    0  -451.38550576   -0.10E-03* -0.29E-01*  23  28 1  0.67E-03   0.36   1.14    QN   YES    0:00:02
       75   9   34    0  -451.38555926   -0.54E-04* -0.11E-01*  17  35 1 -0.53E-03   0.36   0.96    QN   YES    0:00:02
       76   6   35    0  -451.38559315   -0.34E-04*  0.65E-02   17  35 1 -0.42E-03   0.36   1.76    QN   YES    0:00:02
       77  12   33    0  -451.38562047   -0.27E-04* -0.54E-02   22  35 1 -0.30E-03   0.36   1.26    QN   YES    0:00:02
       78   6   32    0  -451.38563330   -0.13E-04*  0.46E-02   22  35 1 -0.24E-03   0.36   1.78    QN   YES    0:00:02
       79  11   29    0  -451.38564505   -0.12E-04*  0.32E-02   17  36 1 -0.19E-03   0.36   1.57    QN   YES    0:00:02
       80   9   27    0  -451.38565136   -0.63E-05* -0.28E-02   17  36 1 -0.15E-03   0.36   1.68    QN   YES    0:00:02
       81   8   27    0  -451.38565583   -0.45E-05* -0.25E-02   27  41 1 -0.12E-03   0.36   1.73    QN   YES    0:00:02
       82   7   27    0  -451.38565915   -0.33E-05* -0.19E-02   23  28 1 -0.10E-03   0.36   1.68    QN   YES    0:00:02
       83   6   26    0  -451.38566133   -0.22E-05*  0.15E-02   25  28 1  0.10E-03   0.36   1.65    QN   YES    0:00:02
       84   6   25    0  -451.38566270   -0.14E-05*  0.11E-02   25  28 1  0.10E-03   0.36   1.66    QN   YES    0:00:02
       85   6   24    0  -451.38566358   -0.88E-06  -0.85E-03   25  28 1  0.81E-04   0.36   1.64    QN   YES    0:00:02
      Convergence after 85 iterations
       86   6   24    0  -451.38566415   -0.57E-06  -0.85E-03   25  28 1  0.54E-04   0.36   1.64    QN   YES    0:00:02

      ************************************************************************************************************************
                                                      Wave function printout:
                       occupation of active orbitals, and spin coupling of open shells (u,d: Spin up or down)
      ************************************************************************************************************************

      Note: transformation to natural orbitals
      has been made, which may change the order of the CSFs.

      printout of CI-coefficients larger than  0.05 for root  1
      energy=    -451.585069
      conf/sym  1111111111     Coeff  Weight
           335  2u222udd02   0.06243 0.00390
          1056  2022222002  -0.93068 0.86616
          1057  202222ud02  -0.16013 0.02564
          1059  2022220202   0.09156 0.00838
          1062  202222u0d2  -0.10386 0.01079
          1063  20222u20d2   0.05523 0.00305
          1065  20222udud2   0.06408 0.00411
          1072  2022202022   0.06502 0.00423
          1521  2uu222dd02   0.07374 0.00544
          3006  20u2222d02   0.07014 0.00492
          3019  20u22d2022  -0.05032 0.00253
          3166  u022222d02  -0.05946 0.00354
          3895  2002222022   0.05299 0.00281

      printout of CI-coefficients larger than  0.05 for root  2
      energy=    -451.384405
      conf/sym  1111111111     Coeff  Weight
           606  2u22d22002   0.11863 0.01407
           607  2u22d2ud02   0.06747 0.00455
           806  2u2d222002  -0.12329 0.01520
           807  2u2d22ud02  -0.07715 0.00595
          2086  2022u22d02   0.51536 0.26559
          2087  2022u2d202  -0.12126 0.01470
          2089  2022u220d2   0.20580 0.04235
          2091  2022ud2ud2  -0.07176 0.00515
          2093  2022uu2dd2   0.06828 0.00466
          2326  2uu2d22d02  -0.05449 0.00297
          2686  202u222d02  -0.67794 0.45960
          2687  202u22d202   0.11646 0.01356
          2689  202u2220d2  -0.24649 0.06076
          2691  202u2d2ud2   0.05360 0.00287
          2692  202u22udd2  -0.05293 0.00280
          2806  2uud222d02   0.06633 0.00440

      printout of CI-coefficients larger than  0.05 for root  3
      energy=    -451.329051
      conf/sym  1111111111     Coeff  Weight
           331  2u2222d002   0.07518 0.00565
           333  2u22220d02  -0.06236 0.00389
           335  2u222udd02   0.06672 0.00445
           339  2u222200d2  -0.05182 0.00269
          1036  2022222u0d   0.05452 0.00297
          1056  2022222002   0.12986 0.01686
          1057  202222ud02  -0.77505 0.60070
          1058  20222u2d02   0.41300 0.17057
          1059  2022220202  -0.06795 0.00462
          1060  20222ud202   0.09463 0.00896
          1062  202222u0d2   0.05156 0.00266
          1063  20222u20d2   0.13861 0.01921
          1064  2022220ud2  -0.10569 0.01117
          1066  2022202ud2   0.14462 0.02091
          1074  202220ud22   0.05988 0.00359
          1521  2uu222dd02   0.06792 0.00461
          1611  uu2222dd02  -0.05714 0.00327
          3006  20u2222d02  -0.05403 0.00292
          3008  20u22d2202   0.05216 0.00272
          3009  20u22220d2   0.08756 0.00767
          3011  20u22d2ud2  -0.06348 0.00403
          3012  20u222udd2  -0.05171 0.00267
          3013  20u22u2dd2   0.06786 0.00460
          3166  u022222d02   0.09503 0.00903
          3169  u0222220d2  -0.11136 0.01240

      printout of CI-coefficients larger than  0.05 for root  4
      energy=    -451.327481
      conf/sym  1111111111     Coeff  Weight
           606  2u22d22002  -0.12629 0.01595
           806  2u2d222002  -0.06873 0.00472
          2086  2022u22d02  -0.25120 0.06310
          2087  2022u2d202  -0.05537 0.00307
          2089  2022u220d2   0.50827 0.25834
          2090  2022u2dud2   0.09274 0.00860
          2091  2022ud2ud2  -0.05092 0.00259
          2092  2022u2udd2   0.08736 0.00763
          2094  2022u202d2  -0.05531 0.00306
          2099  2022ud2022   0.09159 0.00839
          2677  202u22202d  -0.05065 0.00257
          2686  202u222d02  -0.27746 0.07698
          2689  202u2220d2   0.65322 0.42670
          2690  202u22dud2   0.09312 0.00867
          2691  202u2d2ud2  -0.06092 0.00371
          2692  202u22udd2   0.05436 0.00296
          2694  202u2202d2  -0.06361 0.00405
          2699  202u2d2022   0.06113 0.00374
          3595  20u2d22022  -0.08769 0.00769
          3805  20ud222022  -0.09033 0.00816

      printout of CI-coefficients larger than  0.05 for root  5
      energy=    -451.302315
      conf/sym  1111111111     Coeff  Weight
            41  2222220002  -0.06952 0.00483
           298  2u222d2u0d  -0.05546 0.00308
           331  2u2222d002   0.11670 0.01362
           332  2u222d2002   0.12724 0.01619
           334  2u222dud02  -0.07872 0.00620
           339  2u222200d2  -0.05200 0.00270
           340  2u222du0d2  -0.08297 0.00688
           341  2u222ud0d2  -0.06319 0.00399
          1056  2022222002   0.07212 0.00520
          1057  202222ud02  -0.39815 0.15852
          1058  20222u2d02  -0.73562 0.54114
          1059  2022220202   0.23975 0.05748
          1060  20222ud202   0.07317 0.00535
          1061  2022202202  -0.05751 0.00331
          1062  202222u0d2   0.12984 0.01686
          1065  20222udud2   0.13386 0.01792
          1067  20222uudd2  -0.05001 0.00250
          1073  20222u0d22  -0.05302 0.00281
          1521  2uu222dd02   0.06958 0.00484
          3008  20u22d2202  -0.12640 0.01598
          3013  20u22u2dd2  -0.08122 0.00660
          3166  u022222d02   0.07011 0.00492
          3167  u02222d202   0.13528 0.01830
          3168  u0222d2202   0.07298 0.00533
          3173  u0222u2dd2  -0.05548 0.00308
          3897  20022u2d22   0.05129 0.00263

      Natural orbitals and occupation numbers for root  1
      sym 1:   1.992540   0.039354   1.959475   1.999743   1.999859   1.948608   1.926106   0.081341   0.057740   1.995235


      Natural orbitals and occupation numbers for root  2
      sym 1:   1.997936   0.077736   1.930199   1.003362   1.996511   1.960516   1.992894   1.001833   0.043732   1.995280


      Natural orbitals and occupation numbers for root  3
      sym 1:   1.966302   0.050363   1.942196   1.999745   1.999815   1.892197   1.084281   0.936234   0.141219   1.987648


      Natural orbitals and occupation numbers for root  4
      sym 1:   1.991414   0.049244   1.953425   1.008679   1.991141   1.997704   1.927702   0.085995   1.000115   1.994583


      Natural orbitals and occupation numbers for root  5
      sym 1:   1.960414   0.065451   1.949563   1.999595   1.999829   1.153350   1.844918   0.911673   0.126048   1.989160


      ************************************************************************************************************************
      *                                                                                                                      *
[...]
 Compute H0 matrices for state    5
--------------------------------------------------------------------------------

 With new orbitals, the CI array of state    5
--------------------------------------------------------------------------------
 CI COEFFICIENTS LARGER THAN  0.50D-01
  Occupation of active orbitals, and spin coupling
  of open shells. (u,d: Spin up or down).
  SGUGA info is (Midvert:IsyUp:UpperWalk/LowerWalk)
        Conf  SGUGA info        Occupation     Coefficient         Weight
         298  ( 2:1:  23/   4)   2u222d2u0d      -0.058530       0.003426
         331  ( 2:1:  56/   4)   2u2222d002       0.095977       0.009212
         332  ( 2:1:  57/   4)   2u222d2002       0.135317       0.018311
         340  ( 2:1:  65/   4)   2u222du0d2      -0.069440       0.004822
         341  ( 2:1:  66/   4)   2u222ud0d2      -0.062145       0.003862
        1056  ( 3:1:  31/  13)   2022222002       0.096829       0.009376
        1057  ( 3:1:  32/  13)   202222ud02      -0.337913       0.114185
        1058  ( 3:1:  33/  13)   20222u2d02      -0.800400       0.640640
        1059  ( 3:1:  34/  13)   2022220202       0.160854       0.025874
        1060  ( 3:1:  35/  13)   20222ud202       0.064405       0.004148
        1061  ( 3:1:  36/  13)   2022202202      -0.072227       0.005217
        1062  ( 3:1:  37/  13)   202222u0d2       0.144754       0.020954
        1065  ( 3:1:  40/  13)   20222udud2       0.076190       0.005805
        1071  ( 3:1:  46/  13)   20222ud022      -0.051181       0.002620
        1073  ( 3:1:  48/  13)   20222u0d22      -0.065636       0.004308
        1611  ( 4:1:  31/  10)   uu2222dd02       0.071154       0.005063
        3008  ( 5:1:  23/  35)   20u22d2202      -0.085815       0.007364
        3011  ( 5:1:  26/  35)   20u22d2ud2       0.052954       0.002804
        3167  ( 5:1:  22/  39)   u02222d202       0.161847       0.026194
        3173  ( 5:1:  28/  39)   u0222u2dd2      -0.073224       0.005362


  Constructing G3/F3
   memory avail:      3.593954800 GB
   memory used:       0.004078800 GB
  Sym:   1, #Tasks:    100
--------------------------------------------------------------------------------
 H0 matrices have been computed.

********************************************************************************
  CASPT2 EQUATION SOLUTION
--------------------------------------------------------------------------------

 Computing the S/B matrices
 --------------------------

  Construct S matrices

  Construct B matrices

  Find transformation matrices to eigenbasis of block-diagonal part of H0.
  Eliminate linear dependency. Thresholds for:
   Initial squared norm  :  0.1000E-09
   Eigenvalue of scaled S:  0.1000E-07

  Condition numbers are computed after diagonal scaling and after removal of
  linear dependency. Resulting sizes, condition numbers, and times:
    CASE(SYM)       NASUP       NISUP      NINDEP     COND NR  CPU (s)
   VJTU  (1)         1000          17         990   0.28E+08        1
   VJTIP (1)           55         153          55   0.14E+05        0
   VJTIM (1)           45         136          45   0.10E+05        0
   ATVX  (1)         1000         129         990   0.63E+07        1
   AIVX  (1)          200        2193         199   0.38E+06        0
   VJAIP (1)           10       19737          10   0.23E+03        0
   VJAIM (1)           10       17544          10   0.23E+03        0
   BVATP (1)           55        8385          55   0.16E+04        0
   BVATM (1)           45        8256          45   0.19E+03        0
   BJATP (1)           10      142545          10    22.            0
   BJATM (1)           10      140352          10    22.            0

  Total nr of CASPT2 parameters:
   Before reduction:     7039331
   After  reduction:     7035678

 Computing the right-hand side (RHS) elements
 --------------------------------------------
  Using RHSALL2+ADDRHS algorithm

 The contributions to the second order correlation energy in atomic units.
-----------------------------------------------------------------------------------------------------------------------------
  IT.      VJTU        VJTI        ATVX        AIVX        VJAI        BVAT        BJAT        BJAI        TOTAL       RNORM  
-----------------------------------------------------------------------------------------------------------------------------
   1    -0.000287   -0.003169   -0.070308   -0.173913   -0.023526   -0.122138   -0.347832   -0.562931   -1.304104    0.004698
   2    -0.000292   -0.003194   -0.070591   -0.174350   -0.023570   -0.122218   -0.348042   -0.563139   -1.305396    0.000405
   3    -0.000292   -0.003195   -0.070596   -0.174361   -0.023571   -0.122220   -0.348048   -0.563139   -1.305421    0.000045
   4    -0.000292   -0.003195   -0.070595   -0.174358   -0.023571   -0.122219   -0.348046   -0.563137   -1.305412    0.000006
-----------------------------------------------------------------------------------------------------------------------------

  FINAL CASPT2 RESULT:

  Correlation energy /Case, /Symm, and sums:
 VJTU     -0.00029170 -0.00029170
 VJTIP    -0.00272218 -0.00272218
 VJTIM    -0.00047236 -0.00047236
 ATVX     -0.07059447 -0.07059447
 AIVX     -0.17435828 -0.17435828
 VJAIP    -0.01585316 -0.01585316
 VJAIM    -0.00771735 -0.00771735
 BVATP    -0.08937448 -0.08937448
 BVATM    -0.03284457 -0.03284457
 BJATP    -0.13899459 -0.13899459
 BJATM    -0.20905113 -0.20905113
 BJAIP    -0.40441814 -0.40441814
 BJAIM    -0.15871926 -0.15871926
 Summed:  -1.30541167 -1.30541167

      Reference energy:        -451.3023149345
      E2 (Non-variational):      -1.3054116664
      Shift correction:          -0.0069774518
      E2 (Variational):          -1.3123891183
      Total energy:            -452.6147040527
      Residual norm:              0.0000008586
      Reference weight:           0.70542

      Contributions to the CASPT2 correlation energy
      Active & Virtual Only:         -0.1928135256
      One Inactive Excited:          -0.5226957029
      Two Inactive Excited:          -0.5899024380


++ Denominators, etc.
--------------------------------------------------------------------------------------------------------------
 Report on small energy denominators, large coefficients, and large energy contributions.
  The ACTIVE-MIX index denotes linear combinations which gives ON expansion functions
  and makes H0 diagonal within type.
  DENOMINATOR: The (H0_ii - E0) value from the above-mentioned diagonal approximation.
  RHS VALUE  : Right-Hand Side of CASPT2 Eqs.
  COEFFICIENT: Multiplies each of the above ON terms in the first-order wave function.
 Thresholds used:
         Denominators: 0.3000
         Coefficients: 0.0250
 Energy contributions: 0.0050

CASE  SYMM ACTIVE-MIX  NON-ACTIVE INDICES          DENOMINATOR     RHS VALUE       COEFFICIENT     CONTRIBUTION
VJTU     1  Mu1.0001  In1.018                       0.27423691      0.00003092     -0.00008024     -0.00000000
VJTU     1  Mu1.0001  In1.019                       0.25229551      0.00003400     -0.00012085     -0.00000000
VJTU     1  Mu1.0001  In1.020                       0.20858018      0.00004246     -0.00013615     -0.00000001
VJTU     1  Mu1.0001  In1.021                       0.21156648     -0.00000381      0.00001358     -0.00000000
VJTU     1  Mu1.0001  In1.022                       0.16397461     -0.00006961      0.00021465     -0.00000001
VJTU     1  Mu1.0001  In1.023                       0.07241835     -0.00001990      0.00003377     -0.00000000
VJTU     1  Mu1.0002  In1.023                       0.23644201     -0.00000056      0.00000248     -0.00000000
VJTU     1  Mu1.0001  In1.024                       0.04687705      0.00052968     -0.00118219     -0.00000063
VJTU     1  Mu1.0002  In1.024                       0.21090071      0.00032778     -0.00090914     -0.00000030
VJTU     1  Mu1.0001  In1.025                       0.02284626     -0.00001505      0.00001375     -0.00000000
VJTU     1  Mu1.0002  In1.025                       0.18686992     -0.00000372      0.00000996     -0.00000000
VJTU     1  Mu1.0001  In1.026                       0.01637840     -0.00003908      0.00002193     -0.00000000
VJTU     1  Mu1.0002  In1.026                       0.18040206      0.00000073     -0.00000412     -0.00000000
ATVX     1  Mu1.0001  Se1.037                      -0.01932680     -0.00000845     -0.00000325      0.00000000
ATVX     1  Mu1.0002  Se1.037                       0.05332749     -0.00000158      0.00000076     -0.00000000
ATVX     1  Mu1.0003  Se1.037                       0.19249006      0.00002132     -0.00005561     -0.00000000
ATVX     1  Mu1.0004  Se1.037                       0.21773491     -0.00505084      0.01267110     -0.00006400
ATVX     1  Mu1.0005  Se1.037                       0.25645348      0.00503025     -0.01202923     -0.00006051
ATVX     1  Mu1.0006  Se1.037                       0.26205525      0.00010144     -0.00023354     -0.00000002
ATVX     1  Mu1.0007  Se1.037                       0.28410597     -0.00000085      0.00000098     -0.00000000
ATVX     1  Mu1.0001  Se1.038                       0.01482686     -0.00000513      0.00000183     -0.00000000
ATVX     1  Mu1.0002  Se1.038                       0.08748116      0.00000256     -0.00000878     -0.00000000
ATVX     1  Mu1.0003  Se1.038                       0.22664373      0.00001059     -0.00002241     -0.00000000
ATVX     1  Mu1.0004  Se1.038                       0.25188858     -0.00159311      0.00404846     -0.00000645
ATVX     1  Mu1.0005  Se1.038                       0.29060714      0.00080740     -0.00150971     -0.00000122
ATVX     1  Mu1.0006  Se1.038                       0.29620892      0.00001537     -0.00003108     -0.00000000
ATVX     1  Mu1.0001  Se1.039                       0.05322464     -0.00001079      0.00001482     -0.00000000
ATVX     1  Mu1.0002  Se1.039                       0.12587893      0.00001399     -0.00003574     -0.00000000
ATVX     1  Mu1.0003  Se1.039                       0.26504151     -0.00000725      0.00002045     -0.00000000
ATVX     1  Mu1.0004  Se1.039                       0.29028635      0.00173337     -0.00425336     -0.00000737
ATVX     1  Mu1.0001  Se1.040                       0.08849905     -0.00000101      0.00000376     -0.00000000
ATVX     1  Mu1.0002  Se1.040                       0.16115334      0.00000352     -0.00000968     -0.00000000
ATVX     1  Mu1.0001  Se1.041                       0.12717995      0.00000169      0.00000058      0.00000000
ATVX     1  Mu1.0002  Se1.041                       0.19983424      0.00001689     -0.00004077     -0.00000000
ATVX     1  Mu1.0001  Se1.042                       0.13174774      0.00252647     -0.00544482     -0.00001376
ATVX     1  Mu1.0002  Se1.042                       0.20440203     -0.00342886      0.00851776     -0.00002921
ATVX     1  Mu1.0001  Se1.043                       0.18908134     -0.00000309      0.00001367     -0.00000000
ATVX     1  Mu1.0002  Se1.043                       0.26173563      0.00001827     -0.00004220     -0.00000000
ATVX     1  Mu1.0001  Se1.044                       0.22298014     -0.00000471      0.00001380     -0.00000000
ATVX     1  Mu1.0002  Se1.044                       0.29563443     -0.00000035     -0.00000353      0.00000000
ATVX     1  Mu1.0001  Se1.045                       0.16849064      0.00001185     -0.00003525     -0.00000000
ATVX     1  Mu1.0002  Se1.045                       0.24114493     -0.00001305      0.00004117     -0.00000000
ATVX     1  Mu1.0001  Se1.046                       0.20468827     -0.00001146      0.00002988     -0.00000000
ATVX     1  Mu1.0002  Se1.046                       0.27734256      0.00001058     -0.00002491     -0.00000000
ATVX     1  Mu1.0001  Se1.047                       0.26997897     -0.00000648      0.00001670     -0.00000000
ATVX     1  Mu1.0001  Se1.048                       0.29558654     -0.00000415      0.00001609     -0.00000000
ATVX     1  Mu1.0004  Se1.051                       0.67866140     -0.02098929      0.02884507     -0.00060544
AIVX     1  Mu1.0001  In1.023 Se1.037               0.29811914     -0.00020574     -0.00086566      0.00000018
AIVX     1  Mu1.0001  In1.024 Se1.037               0.27257784     -0.00000035     -0.00000077      0.00000000
AIVX     1  Mu1.0001  In1.025 Se1.037               0.24854705     -0.00041240      0.00108999     -0.00000045
AIVX     1  Mu1.0001  In1.026 Se1.037               0.24207920      0.00017139      0.00124109      0.00000021
AIVX     1  Mu1.0001  In1.025 Se1.038               0.28270072     -0.00030707      0.00075243     -0.00000023
AIVX     1  Mu1.0001  In1.026 Se1.038               0.27623286      0.00135682     -0.00291093     -0.00000395
BJAIP    1  Se1.042 In1.024 Se1.042 In1.024         1.78642449      0.05325974     -0.02966970     -0.00158020
--

   (Skipping property calculation,
    use PROP keyword to activate)

  CASPT2 TIMING INFO FOR STATE      5

                         cpu time  (s)  wall time (s) 
                         -------------  ------------- 

  Group initialization            2.35          2.39
  - Fock matrix build             1.35          1.37
  - integral transforms           0.97          0.98
  State initialization            0.25          0.25
  - density matrices              0.25          0.25
  CASPT2 equations               17.41         19.83
  - H0 S/B matrices               0.03          0.04
  - H0 S/B diag                   2.13          2.15
  - H0 NA diag                    0.00          0.00
  - RHS construction              0.59          0.64
  - PCG solver                   14.65         16.97
    - scaling                     0.01          0.67
    - lin. comb.                  0.10          2.76
    - inner products              0.13          2.74
    - basis transforms            0.55          5.51
    - sigma routines             13.49         72.50
  - array collection              0.00          0.00
  Properties                      0.00          0.00
  Gradient/MS coupling            0.00          0.00
 Total time                      20.01         22.47

--

  Total CASPT2 energies:
::    CASPT2 Root  1     Total energy:   -452.84805863
::    CASPT2 Root  2     Total energy:   -452.66091784
::    CASPT2 Root  3     Total energy:   -452.65810573
::    CASPT2 Root  4     Total energy:   -452.60599770
::    CASPT2 Root  5     Total energy:   -452.61470405

  Relative CASPT2 energies:
 Root          (a.u.)       (eV)    (cm^-1)   (kJ/mol)
    1      0.00000000       0.00        0.0       0.00
    2      0.18714079       5.09    41072.7     491.34
    3      0.18995290       5.17    41689.8     498.72
    4      0.24206093       6.59    53126.2     635.53
    5      0.23335458       6.35    51215.4     612.67

  A NEW JOBIPH FILE NAMED 'JOBMIX' IS PREPARED.
********************************************************************************
++ I/O STATISTICS
 
  I. General I/O information
  - - - - - - - - - - - - - - - - - - - - - - - - - - - - - - - - - - - - - - - - - - -
  Unit  Name          Flsize      Write/Read            MBytes           Write/Read
                      (MBytes)       Calls              In/Out           Time, sec.
  - - - - - - - - - - - - - - - - - - - - - - - - - - - - - - - - - - - - - - - - - - -
   1  RUNFILE           1.34 .     133/    1653 .      0.9/     11.8 .       0/       0
   2  LUSOLV            7.55 .     669/     674 .     79.9/     82.3 .       0/       0
   3  LUSBT            52.34 .     370/    4741 .    246.8/   3461.9 .       0/       0
   4  LUHLF1            0.00 .       0/       0 .      0.0/      0.0 .       0/       0
   5  LUHLF2            0.00 .       0/       0 .      0.0/      0.0 .       0/       0
   6  LUHLF3            0.00 .       0/       0 .      0.0/      0.0 .       0/       0
   7  DRARR            20.62 .      20/      40 .    103.1/    232.9 .       0/       0
   8  DRARRT            0.00 .       0/       0 .      0.0/      0.0 .       0/       0
   9  RHS_01           53.71 .      65/     481 .    268.4/   1986.1 .       0/       0
  10  RHS_02           53.71 .     636/    1727 .   2424.4/   7252.6 .       0/       1
  11  RHS_03           53.71 .     766/    1884 .   3223.7/   7840.0 .       0/       1
  12  RHS_04           53.71 .    1361/    3931 .   5075.4/  16560.0 .       0/       2
  13  RHS_05           53.71 .    2591/    2877 .  11088.0/  12268.8 .       2/       2
  14  RHS_06           53.71 .     150/     150 .    576.1/    576.1 .       0/       0
  15  H0T_01            0.00 .       0/       0 .      0.0/      0.0 .       0/       0
  16  H0T_02            0.00 .       0/       0 .      0.0/      0.0 .       0/       0
  17  H0T_03            0.00 .       0/       0 .      0.0/      0.0 .       0/       0
  18  H0T_04            0.00 .       0/       0 .      0.0/      0.0 .       0/       0
  19  LUDMAT            1.55 .      40/      35 .      7.7/      7.3 .       0/       0
  20  LUCIEX            0.38 .      30/     110 .      1.1/      4.2 .       0/       0
  21  MOLONE            0.64 .      21/       6 .      3.4/      1.2 .       0/       0
  22  MOLINT            0.00 .       0/       0 .      0.0/      0.0 .       0/       0
  23  A_PT2             0.00 .       0/       0 .      0.0/      0.0 .       0/       0
  24  JOBIPH            4.13 .       0/      43 .      0.0/      2.1 .       0/       0
  25  CHRED             0.22 .       0/      24 .      0.0/      1.3 .       0/       0
  26  CHVEC1           74.59 .       0/      10 .      0.0/    745.9 .       0/       0
  27  CHORST            0.03 .       0/      12 .      0.0/      0.0 .       0/       0
  28  CHOMAP            0.01 .       0/       0 .      0.0/      0.0 .       0/       0
  29  ONEINT            4.40 .       0/      80 .      0.0/     14.0 .       0/       0
  30  JOBMIX            4.13 .      35/       0 .      1.7/      0.0 .       0/       0
  - - - - - - - - - - - - - - - - - - - - - - - - - - - - - - - - - - - - - - - - - - -
   *  TOTAL           494.15 .    6887/   18478 .  23100.6/  51048.5 .       4/       8
  - - - - - - - - - - - - - - - - - - - - - - - - - - - - - - - - - - - - - - - - - - -
 
  II. I/O Access Patterns
  - - - - - - - - - - - - - - - - - - - -
  Unit  Name               % of random
                         Write/Read calls
  - - - - - - - - - - - - - - - - - - - -
   1  RUNFILE             28.6/  11.2
   2  LUSOLV               8.8/   9.6
   3  LUSBT               95.7/  79.7
   4  LUHLF1               0.0/   0.0
   5  LUHLF2               0.0/   0.0
   6  LUHLF3               0.0/   0.0
   7  DRARR               70.0/ 100.0
   8  DRARRT               0.0/   0.0
   9  RHS_01              29.2/  30.8
  10  RHS_02              92.8/  29.3
  11  RHS_03              94.0/  30.1
  12  RHS_04              92.2/  29.0
  13  RHS_05              78.9/  27.9
  14  RHS_06              59.3/  36.7
  15  H0T_01               0.0/   0.0
  16  H0T_02               0.0/   0.0
  17  H0T_03               0.0/   0.0
  18  H0T_04               0.0/   0.0
  19  LUDMAT              22.5/  28.6
  20  LUCIEX              83.3/  89.1
  21  MOLONE              47.6/ 100.0
  22  MOLINT               0.0/   0.0
  23  A_PT2                0.0/   0.0
  24  JOBIPH               0.0/  95.3
  25  CHRED                0.0/  41.7
  26  CHVEC1               0.0/  90.0
  27  CHORST               0.0/   0.0
  28  CHOMAP               0.0/   0.0
  29  ONEINT               0.0/  12.5
  30  JOBMIX              97.1/   0.0
  - - - - - - - - - - - - - - - - - - - -
--
--- Stop Module: caspt2 at Tue Apr  4 17:03:45 2023 /rc=_RC_ALL_IS_WELL_ ---
*** files: xmldump
    saved to directory /home/marlenne/thymine/Thymine/MOLCAS/3.Ground_State/2.GS_planar/CASPT2
--- Module caspt2 spent 1 minute 55 seconds ---
 Happy landing!
    Timing: Wall=322.71 User=306.25 System=15.69
