   This run of MOLCAS is using the pymolcas driver

                             OPE
                             OPE          NMOL  CASOP  ENMOLC A   SO
                 OPE        NMOLC        AS  OP EN  MO LC     AS  OP
                OPENM       OL CA        SO  PE NM  OL CA     SOP EN
                OP EN      MO   LC       AS  OP ENMOL  CASO   PENMOL
                OP  EN     MO   LC       AS  OP EN     MO     LC ASO
               OP   E  NMOL  C  AS       OP  EN MO     LC     AS  OP
               OP  E   NMO   LC AS        OPEN  MO     LCASOP EN   M
               O  PEN   MO  LCA  SO
            OPE   NMO   L   CAS    OP
        OPENMOL  CASOP     ENMOL   CASOPE
     OPENMOLCA   SOPENMOLCASOPEN   MOLCASOPE
    OPENMOLCAS   OP           EN   MOL    CAS
    OPENMOLCAS       OP  ENM        O     LCA
    OPENMOLCAS    OPEN  MOLCASO     P  E  NMO
    OPENMOLCAS     OP               E  N  MOL
    OPENMOLCA   SO           PENM   O  L  CAS    OPEN    MO    LCAS
    OPENMOLCA   SOP           ENM   O  L  CAS   OP  EN  MOLC  AS   O
    OPENMOLCA   SOPE           NM      O  LCA   S      OP  EN MO
    OPENMOLC                AS         O  PEN   M      OL  CA  SOPE
    OPENMO        LCASOPE  NMOL        C  ASO   P      ENMOLC     AS
    OPE     NMO      LCA  SO     P     E   NM   OL  CA SO  PE N   MO
          OPENMOLCA            SOPE   NMO        LCAS  O    P  ENMO
     OPENMOLCASOPENMOLCASOPENMOLCASOPENMOLCA
        OPENMOLCASOPENMOLCASOPENMOLCASOPE
            OPENMOLCASOPENMOLCASOPENM
               OPENMOLCASOPENMOLCA        version: 22.06
                   OPENMOLCASO
                       OPE                tag: 360-g995f53266

 OpenMolcas is free software; you can redistribute it and/or modify it
 under the terms of the GNU Lesser General Public License version 2.1.
 OpenMolcas is distributed in the hope that it will be useful, but it
 is provided "as is" and without any express or implied warranties.
 For more details see the full text of the license in the file
 LICENSE or in <http://www.gnu.org/licenses/>.

                 Copyright (C) The OpenMolcas Authors
           For the author list and the recommended citation,
                   consult the file CONTRIBUTORS.md

           *************************************************
           * pymolcas version py2.06                       *
           *   build bf02a7b0d12655ada6bc2259076d6962      *
           *   (after the EMIL interpreter by V. Veryazov) *
           *************************************************

configuration info
------------------
Host name: qcexmaster (Linux)
C Compiler ID: GNU
C flags: -std=gnu99
Fortran Compiler ID: GNU
Fortran flags: -fno-aggressive-loop-optimizations -cpp -fdefault-integer-8 -fmax-stack-var-size=1048576
Definitions: _MOLCAS_;_I8_;_LINUX_
Parallel: OFF (GA=OFF)


   --------------------------------------------------------------------------------
  |
  |           Project: scf
  |    Submitted from: /scr/marlenne/_scf/Work
  |      Scratch area: /scr/marlenne/_scf/Work
  |   Save outputs to: /home/marlenne/thymine/Thymine/MOLCAS/2.Thymine_opt_fabrizio
  |            Molcas: /soft/OPENMOLCAS/CASPT2-GRADIENTS/OpenMolcas/build
  |
  | Scratch area is NOT empty
  |
  |    MOLCAS_DRIVER = /soft/bin/pymolcas
  |    MOLCAS_NPROCS = 1
  |     MOLCAS_PRINT = 3
  |    MOLCAS_SOURCE = /soft/OPENMOLCAS/CASPT2-GRADIENTS/OpenMolcas/build
  | MOLCAS_STRUCTURE = 0
  |
   --------------------------------------------------------------------------------

++ ---------   Input file   ---------

&GATEWAY
   coord=$HomeDir/thymine_planar_fabrizio.xyz
   basis=6-31G**
   group=nosymm
   RICD

>>> DO WHILE

  &SEWARD
        DoAnal

  &SCF

  &SLAPAF

>>> END DO

-- ----------------------------------

*** symbolic link created: INPORB -> scf.ScfOrb
--- Start Module: gateway at Wed Mar 29 16:38:26 2023 ---

()()()()()()()()()()()()()()()()()()()()()()()()()()()()()()()()()()()()()()()()()()()()()()()()()()

                                              &GATEWAY

                                   only a single process is used
                       available to each process: 4.0 GB of memory, 1 thread?
                                             pid: 29590
()()()()()()()()()()()()()()()()()()()()()()()()()()()()()()()()()()()()()()()()()()()()()()()()()()



 Basis Set     1 Label: N.6-31G**
 Basis set is read from library:basis_library 
 Basis Set Reference(s):
     P.C. Hariharan, J.A. Pople. Theor. Chim. Acta 28 (1973) 213-222. doi:10.1007/bf00533485
     NITROGEN (10s,4p,1d) -> [3s,2p,1d]




 Basis Set     2 Label: C.6-31G**
 Basis set is read from library:basis_library 
 Basis Set Reference(s):
     P.C. Hariharan, J.A. Pople. Theor. Chim. Acta 28 (1973) 213-222. doi:10.1007/bf00533485
     CARBON (10s,4p,1d) -> [3s,2p,1d]




 Basis Set     3 Label: N.6-31G**
 Basis set is read from library:basis_library 
 Basis Set Reference(s):
     P.C. Hariharan, J.A. Pople. Theor. Chim. Acta 28 (1973) 213-222. doi:10.1007/bf00533485
     NITROGEN (10s,4p,1d) -> [3s,2p,1d]




 Basis Set     4 Label: C.6-31G**
 Basis set is read from library:basis_library 
 Basis Set Reference(s):
     P.C. Hariharan, J.A. Pople. Theor. Chim. Acta 28 (1973) 213-222. doi:10.1007/bf00533485
     CARBON (10s,4p,1d) -> [3s,2p,1d]




 Basis Set     5 Label: O.6-31G**
 Basis set is read from library:basis_library 
 Basis Set Reference(s):
     P.C. Hariharan, J.A. Pople. Theor. Chim. Acta 28 (1973) 213-222. doi:10.1007/bf00533485
     OXYGEN (10s,4p,1d) -> [3s,2p,1d]




 Basis Set     6 Label: H.6-31G**
 Basis set is read from library:basis_library 
 Basis Set Reference(s):
     P.C. Hariharan, J.A. Pople. Theor. Chim. Acta 28 (1973) 213-222. doi:10.1007/bf00533485
     HYDROGEN (4s,1p) -> [2s,1p]




 Basis Set     7 Label: C.6-31G**
 Basis set is read from library:basis_library 
 Basis Set Reference(s):
     P.C. Hariharan, J.A. Pople. Theor. Chim. Acta 28 (1973) 213-222. doi:10.1007/bf00533485
     CARBON (10s,4p,1d) -> [3s,2p,1d]




 Basis Set     8 Label: H.6-31G**
 Basis set is read from library:basis_library 
 Basis Set Reference(s):
     P.C. Hariharan, J.A. Pople. Theor. Chim. Acta 28 (1973) 213-222. doi:10.1007/bf00533485
     HYDROGEN (4s,1p) -> [2s,1p]




 Basis Set    10 Label: N.6-31G**....acCD-aux-basis.
 On-the-fly basis set generation


 Basis Set    11 Label: N.6-31G**....acCD-aux-basis.
 On-the-fly basis set generation


 Basis Set    12 Label: C.6-31G**....acCD-aux-basis.
 On-the-fly basis set generation


 Basis Set    13 Label: C.6-31G**....acCD-aux-basis.
 On-the-fly basis set generation


 Basis Set    14 Label: N.6-31G**....acCD-aux-basis.
 On-the-fly basis set generation


 Basis Set    15 Label: N.6-31G**....acCD-aux-basis.
 On-the-fly basis set generation


 Basis Set    16 Label: C.6-31G**....acCD-aux-basis.
 On-the-fly basis set generation


 Basis Set    17 Label: C.6-31G**....acCD-aux-basis.
 On-the-fly basis set generation


 Basis Set    18 Label: O.6-31G**....acCD-aux-basis.
 On-the-fly basis set generation


 Basis Set    19 Label: O.6-31G**....acCD-aux-basis.
 On-the-fly basis set generation


 Basis Set    20 Label: H.6-31G**....acCD-aux-basis.
 On-the-fly basis set generation


 Basis Set    21 Label: C.6-31G**....acCD-aux-basis.
 On-the-fly basis set generation


 Basis Set    22 Label: C.6-31G**....acCD-aux-basis.
 On-the-fly basis set generation


 Basis Set    23 Label: H.6-31G**....acCD-aux-basis.
 On-the-fly basis set generation

  Weights used for alignment and distance                     
  mat. size =    15x    1
       14.0030740044299993
       12.0000000000000000
       14.0030740044299993
       12.0000000000000000
       12.0000000000000000
       12.0000000000000000
       15.9949146195700003
       15.9949146195700003
        1.0078250322300000
        1.0078250322300000
       12.0000000000000000
        1.0078250322300000
        1.0078250322300000
        1.0078250322300000
        1.0078250322300000


++    Symmetry information:
      ---------------------

                    Character Table for C1 

                             E  
                    a        1  x, y, xy, Rz, z, xz, Ry, yz, Rx, I
--


++    Basis set information:
      ----------------------


      Basis set label: N.6-31G**.........

      Electronic valence basis set:
      ------------------
      Associated Effective Charge   7.000000 au
      Associated Actual Charge      7.000000 au
      Nuclear Model: Point charge

      Shell  nPrim  nBasis  Cartesian Spherical Contaminant
         s      10       3        X                  
         p       4       2        X                  
         d       1       1        X                  

       Label   Cartesian Coordinates / Bohr

 N1                 0.2942946083       -3.1351728038        0.0000000000


      Basis set label: C.6-31G**.........

      Electronic valence basis set:
      ------------------
      Associated Effective Charge   6.000000 au
      Associated Actual Charge      6.000000 au
      Nuclear Model: Point charge

      Shell  nPrim  nBasis  Cartesian Spherical Contaminant
         s      10       3        X                  
         p       4       2        X                  
         d       1       1        X                  

       Label   Cartesian Coordinates / Bohr

 C2                 2.5624724044       -1.8499379411        0.0000000000


      Basis set label: N.6-31G**.........

      Electronic valence basis set:
      ------------------
      Associated Effective Charge   7.000000 au
      Associated Actual Charge      7.000000 au
      Nuclear Model: Point charge

      Shell  nPrim  nBasis  Cartesian Spherical Contaminant
         s      10       3        X                  
         p       4       2        X                  
         d       1       1        X                  

       Label   Cartesian Coordinates / Bohr

 N3                 2.2600179587        0.7389962983        0.0000000000


      Basis set label: C.6-31G**.........

      Electronic valence basis set:
      ------------------
      Associated Effective Charge   6.000000 au
      Associated Actual Charge      6.000000 au
      Nuclear Model: Point charge

      Shell  nPrim  nBasis  Cartesian Spherical Contaminant
         s      10       3        X                  
         p       4       2        X                  
         d       1       1        X                  

       Label   Cartesian Coordinates / Bohr

 C4                 0.0000000000        2.1077230406        0.0000000000
 C5                -2.2946717564        0.5591302760        0.0000000000
 C6                -2.0288609900       -1.9602110193        0.0000000000


      Basis set label: O.6-31G**.........

      Electronic valence basis set:
      ------------------
      Associated Effective Charge   8.000000 au
      Associated Actual Charge      8.000000 au
      Nuclear Model: Point charge

      Shell  nPrim  nBasis  Cartesian Spherical Contaminant
         s      10       3        X                  
         p       4       2        X                  
         d       1       1        X                  

       Label   Cartesian Coordinates / Bohr

 O7                 4.5940564898       -2.8924034680        0.0000000000
 O8                 0.0333272099        4.3958979186        0.0000000000


      Basis set label: H.6-31G**.........

      Electronic valence basis set:
      ------------------
      Associated Effective Charge   1.000000 au
      Associated Actual Charge      1.000000 au
      Nuclear Model: Point charge

      Shell  nPrim  nBasis  Cartesian Spherical Contaminant
         s       4       2        X                  
         p       1       1        X                  

       Label   Cartesian Coordinates / Bohr

 H9                 0.4351529039       -5.0345686570        0.0000000000
 H10                3.8736361993        1.7647793230        0.0000000000


      Basis set label: C.6-31G**.........

      Electronic valence basis set:
      ------------------
      Associated Effective Charge   6.000000 au
      Associated Actual Charge      6.000000 au
      Nuclear Model: Point charge

      Shell  nPrim  nBasis  Cartesian Spherical Contaminant
         s      10       3        X                  
         p       4       2        X                  
         d       1       1        X                  

       Label   Cartesian Coordinates / Bohr

 C11               -4.7875209813        1.8902250123        0.0000000000


      Basis set label: H.6-31G**.........

      Electronic valence basis set:
      ------------------
      Associated Effective Charge   1.000000 au
      Associated Actual Charge      1.000000 au
      Nuclear Model: Point charge

      Shell  nPrim  nBasis  Cartesian Spherical Contaminant
         s       4       2        X                  
         p       1       1        X                  

       Label   Cartesian Coordinates / Bohr

 H12               -3.6377775920       -3.2240806385        0.0000000000
 H13               -6.3459648882        0.5413970861        0.0000000000
 H14               -4.9663967870        3.1080986976        1.6556495290
 H15               -4.9663967870        3.1080986976       -1.6556495290
--


++    Molecular structure info:
      -------------------------

                    ************************************************ 
                    **** Cartesian Coordinates / Bohr, Angstrom **** 
                    ************************************************ 

     Center  Label                x              y              z                     x              y              z
        1      N1               0.294295      -3.135173       0.000000              0.155734      -1.659062       0.000000
        2      C2               2.562472      -1.849938       0.000000              1.356002      -0.978945       0.000000
        3      N3               2.260018       0.738996       0.000000              1.195950       0.391060       0.000000
        4      C4               0.000000       2.107723       0.000000              0.000000       1.115359       0.000000
        5      C5              -2.294672       0.559130       0.000000             -1.214288       0.295879       0.000000
        6      C6              -2.028861      -1.960211       0.000000             -1.073627      -1.037299       0.000000
        7      O7               4.594056      -2.892403       0.000000              2.431070      -1.530594       0.000000
        8      O8               0.033327       4.395898       0.000000              0.017636       2.326209       0.000000
        9      H9               0.435153      -5.034569       0.000000              0.230273      -2.664179       0.000000
       10      H10              3.873636       1.764779       0.000000              2.049840       0.933881       0.000000
       11      C11             -4.787521       1.890225       0.000000             -2.533447       1.000264       0.000000
       12      H12             -3.637778      -3.224081       0.000000             -1.925029      -1.706110       0.000000
       13      H13             -6.345965       0.541397       0.000000             -3.358140       0.286495       0.000000
       14      H14             -4.966397       3.108099       1.655650             -2.628104       1.644735       0.876132
       15      H15             -4.966397       3.108099      -1.655650             -2.628104       1.644735      -0.876132

                    *************************************** 
                    *    InterNuclear Distances / Bohr    * 
                    *************************************** 

               1 N1            2 C2            3 N3            4 C4            5 C5            6 C6    
    1 N1       0.000000
    2 C2       2.607002        0.000000
    3 N3       4.344336        2.606542        0.000000
    4 C4       5.251149        4.714801        2.642176        0.000000
    5 C5       4.511166        5.421758        4.558240        2.768331        0.000000
    6 C6       2.603380        4.592657        5.067564        4.545807        2.533325        0.000000
    7 O7       4.306610        2.283433        4.316804        6.790186        7.705041        6.688200
    8 O8       7.535591        6.738475        4.281481        2.288418        4.487802        6.682271
    9 H9       1.904612        3.829799        6.055096        7.155536        6.224260        3.939929
   10 H10      6.068049        3.845170        1.912066        3.888787        6.285031        6.979615
   11 C11      7.146990        8.246892        7.140948        4.792459        2.825971        4.736672
   12 H12      3.933077        6.350698        7.105630        6.454576        4.014551        2.045967
   13 H13      7.590139        9.223814        8.608251        6.536409        4.051332        4.989532
   14 H14      8.330335        9.165543        7.782987        5.329824        4.046793        6.087533
   15 H15      8.330335        9.165543        7.782987        5.329824        4.046793        6.087533

               7 O7            8 O8            9 H9           10 H10          11 C11          12 H12   
    7 O7       0.000000
    8 O8       8.597650        0.000000
    9 H9       4.678178        9.439023        0.000000
   10 H10      4.712574        4.655186        7.619337        0.000000
   11 C11     10.530315        5.433137        8.673470        8.662066        0.000000
   12 H12      8.238513        8.458196        4.457200        9.017209        5.241949        0.000000
   13 H13     11.466257        7.453358        8.779234       10.292566        2.061088        4.638222
   14 H14     11.408307        5.421885        9.910648        9.093507        2.063102        6.678540
   15 H15     11.408307        5.421885        9.910648        9.093507        2.063102        6.678540

              13 H13          14 H14          15 H15   
   13 H13      0.000000
   14 H14      3.351468        0.000000
   15 H15      3.351468        3.311299        0.000000

                    ******************************************* 
                    *    InterNuclear Distances / Angstrom    * 
                    ******************************************* 

               1 N1            2 C2            3 N3            4 C4            5 C5            6 C6    
    1 N1       0.000000
    2 C2       1.379566        0.000000
    3 N3       2.298924        1.379322        0.000000
    4 C4       2.778788        2.494965        1.398179        0.000000
    5 C5       2.387206        2.869071        2.412117        1.464938        0.000000
    6 C6       1.377649        2.430330        2.681639        2.405538        1.340578        0.000000
    7 O7       2.278960        1.208341        2.284355        3.593211        4.077332        3.539243
    8 O8       3.987663        3.565847        2.265662        1.210978        2.374842        3.536105
    9 H9       1.007877        2.026642        3.204219        3.786546        3.293736        2.084921
   10 H10      3.211073        2.034776        1.011822        2.057858        3.325895        3.693453
   11 C11      3.782024        4.364067        3.778827        2.536060        1.495439        2.506539
   12 H12      2.081295        3.360645        3.760137        3.415615        2.124409        1.082679
   13 H13      4.016529        4.881032        4.555290        3.458919        2.143873        2.640347
   14 H14      4.408224        4.850196        4.118580        2.820421        2.141470        3.221384
   15 H15      4.408224        4.850196        4.118580        2.820421        2.141470        3.221384

               7 O7            8 O8            9 H9           10 H10          11 C11          12 H12   
    7 O7       0.000000
    8 O8       4.549681        0.000000
    9 H9       2.475585        4.994916        0.000000
   10 H10      2.493787        2.463418        4.031980        0.000000
   11 C11      5.572403        2.875092        4.589803        4.583768        0.000000
   12 H12      4.359634        4.475885        2.358649        4.771702        2.773920        0.000000
   13 H13      6.067682        3.944147        4.645771        5.446591        1.090681        2.454441
   14 H14      6.037016        2.869138        5.244489        4.812077        1.091746        3.534131
   15 H15      6.037016        2.869138        5.244489        4.812077        1.091746        3.534131

              13 H13          14 H14          15 H15   
   13 H13      0.000000
   14 H14      1.773521        0.000000
   15 H15      1.773521        1.752264        0.000000

                    ************************************** 
                    *    Valence Bond Angles / Degree    * 
                    ************************************** 
                          Atom centers                 Phi
                      2 C2       1 N1       6 C6       123.63
                      2 C2       1 N1       9 H9       115.30
                      6 C6       1 N1       9 H9       121.07
                      1 N1       2 C2       3 N3       112.87
                      1 N1       2 C2       7 O7       123.30
                      3 N3       2 C2       7 O7       123.83
                      2 C2       3 N3       4 C4       127.86
                      2 C2       3 N3      10 H10      115.78
                      4 C4       3 N3      10 H10      116.36
                      3 N3       4 C4       5 C5       114.79
                      3 N3       4 C4       8 O8       120.37
                      5 C5       4 C4       8 O8       124.85
                      4 C4       5 C5       6 C6       117.99
                      4 C4       5 C5      11 C11      117.89
                      6 C6       5 C5      11 C11      124.12
                      1 N1       6 C6       5 C5       122.85
                      1 N1       6 C6      12 H12      115.02
                      5 C5       6 C6      12 H12      122.13
                      5 C5      11 C11     13 H13      111.02
                      5 C5      11 C11     14 H14      110.76
                      5 C5      11 C11     15 H15      110.76
                     13 H13     11 C11     14 H14      108.71
                     13 H13     11 C11     15 H15      108.71
                     14 H14     11 C11     15 H15      106.74

           ***************************************************************
           *              Valence Dihedral Angles / Degree               *
           ***************************************************************
                    Atom centers                       Phi1     Phi2     Theta 
           6 C6       1 N1       2 C2       7 O7        123.63   123.30  -180.00
           2 C2       1 N1       6 C6       5 C5        123.63   122.85    -0.00
           2 C2       1 N1       6 C6      12 H12       123.63   115.02  -180.00
           9 H9       1 N1       6 C6      12 H12       121.07   115.02    -0.00
           3 N3       2 C2       1 N1       6 C6        112.87   123.63    -0.00
           3 N3       2 C2       1 N1       9 H9        112.87   115.30  -180.00
           7 O7       2 C2       1 N1       9 H9        123.30   115.30     0.00
           1 N1       2 C2       3 N3       4 C4        112.87   127.86    -0.00
           1 N1       2 C2       3 N3      10 H10       112.87   115.78  -180.00
           7 O7       2 C2       3 N3      10 H10       123.83   115.78    -0.00
           4 C4       3 N3       2 C2       7 O7        127.86   123.83  -180.00
           2 C2       3 N3       4 C4       5 C5        127.86   114.79    -0.00
           2 C2       3 N3       4 C4       8 O8        127.86   120.37  -180.00
           5 C5       4 C4       3 N3      10 H10       114.79   116.36  -180.00
           8 O8       4 C4       3 N3      10 H10       120.37   116.36     0.00
           3 N3       4 C4       5 C5       6 C6        114.79   117.99     0.00
           3 N3       4 C4       5 C5      11 C11       114.79   117.89  -180.00
           8 O8       4 C4       5 C5      11 C11       124.85   117.89    -0.00
           6 C6       5 C5       4 C4       8 O8        117.99   124.85  -180.00
           4 C4       5 C5       6 C6      12 H12       117.99   122.13  -180.00
          11 C11      5 C5       6 C6      12 H12       124.12   122.13    -0.00
           4 C4       5 C5      11 C11     13 H13       117.89   111.02  -180.00
           4 C4       5 C5      11 C11     14 H14       117.89   110.76   -59.12
           4 C4       5 C5      11 C11     15 H15       117.89   110.76    59.12
           6 C6       5 C5      11 C11     13 H13       124.12   111.02    -0.00
           6 C6       5 C5      11 C11     14 H14       124.12   110.76   120.88
           6 C6       5 C5      11 C11     15 H15       124.12   110.76  -120.88
           5 C5       6 C6       1 N1       9 H9        122.85   121.07  -180.00
           1 N1       6 C6       5 C5       4 C4        122.85   117.99    -0.00
           1 N1       6 C6       5 C5      11 C11       122.85   124.12  -180.00
--


++    Isotope specification:
      ----------------------

 Center
 Type   Z    A    mass (Da)
 --------------------------
    1   7   14    14.003074
    2   6   12    12.000000
    3   7   14    14.003074
    4   6   12    12.000000
    5   8   16    15.994915
    6   1    1     1.007825
    7   6   12    12.000000
    8   1    1     1.007825
--


++    Rigid rotor info:
      -----------------


                    Total mass (a) : 126.04293

                    Center of mass 
                          X          Y   
                       0.12274   -0.00219    0.00000

                    Reference system based on center of mass
                    Coordinates and Masses of Atoms, in au and A
                          X          Y          Z        Mass
                       0.17156   -3.13298    0.00000   14.00307
                       2.43974   -1.84774    0.00000   12.00000
                       2.13728    0.74119    0.00000   14.00307
                      -0.12274    2.10992    0.00000   12.00000
                      -2.41741    0.56133    0.00000   12.00000
                      -2.15160   -1.95802    0.00000   12.00000
                       4.47132   -2.89021    0.00000   15.99491
                      -0.08941    4.39809    0.00000   15.99491
                       0.31242   -5.03237    0.00000    1.00783
                       3.75090    1.76697    0.00000    1.00783
                      -4.91026    1.89242    0.00000   12.00000
                      -3.76051   -3.22189    0.00000    1.00783
                      -6.46870    0.54359    0.00000    1.00783
                      -5.08913    3.11029    1.65565    1.00783
                      -5.08913    3.11029   -1.65565    1.00783

                    The Moment of Inertia Tensor / au
                                     X          Y        Z     
                    X             0.1531E+07
                    Y             0.6397E+06 0.1822E+07
                    Z             0.0000E+00 0.0000E+00 0.3332E+07

                    The Principal Axes and Moments of Inertia (au)
                    Eigenvalues : 0.3332E+07 0.2332E+07 0.1020E+07
                                     X'         Y'       Z'    
                    Eigenvectors:
                    X             0.0000E+00 0.6238E+00 0.7816E+00
                    Y             0.0000E+00 0.7816E+00-0.6238E+00
                    Z             0.1000E+01 0.0000E+00 0.0000E+00

                    The Rotational Constants
                            (cm-1)            (GHz)
                              0.033            0.987
                              0.047            1.411
                              0.108            3.225


                    *******************************************
                    *                                         *
                    * R I G I D - R O T O R   A N A L Y S I S *
                    *                                         *
                    *******************************************

                    j(Max):  5

                    Rotor Type: Linear Rotor
                    Asymmetry parameter: -0.622
                    Prolate = -1
                    Oblate  =  1


                    Rotational energies / cm-1

                    E(J= 0,kappa= 0) =        0.000

                    E(J= 1,kappa=-1) =        0.080
                    E(J= 1,kappa= 0) =        0.140
                    E(J= 1,kappa= 1) =        0.155

                    E(J= 2,kappa=-2) =        0.238
                    E(J= 2,kappa=-1) =        0.286
                    E(J= 2,kappa= 0) =        0.329
                    E(J= 2,kappa= 1) =        0.510
                    E(J= 2,kappa= 2) =        0.512

                    E(J= 3,kappa=-3) =        0.469
                    E(J= 3,kappa=-2) =        0.504
                    E(J= 3,kappa=-1) =        0.588
                    E(J= 3,kappa= 0) =        0.750
                    E(J= 3,kappa= 1) =        0.761
                    E(J= 3,kappa= 2) =        1.089
                    E(J= 3,kappa= 3) =        1.090

                    E(J= 4,kappa=-4) =        0.770
                    E(J= 4,kappa=-3) =        0.792
                    E(J= 4,kappa=-2) =        0.931
                    E(J= 4,kappa=-1) =        1.068
                    E(J= 4,kappa= 0) =        1.098
                    E(J= 4,kappa= 1) =        1.413
                    E(J= 4,kappa= 2) =        1.415
                    E(J= 4,kappa= 3) =        1.883
                    E(J= 4,kappa= 4) =        1.883

                    E(J= 5,kappa=-5) =        1.136
                    E(J= 5,kappa=-4) =        1.149
                    E(J= 5,kappa=-3) =        1.355
                    E(J= 5,kappa=-2) =        1.463
                    E(J= 5,kappa=-1) =        1.527
                    E(J= 5,kappa= 0) =        1.819
                    E(J= 5,kappa= 1) =        1.824
                    E(J= 5,kappa= 2) =        2.287
                    E(J= 5,kappa= 3) =        2.288
                    E(J= 5,kappa= 4) =        2.891
                    E(J= 5,kappa= 5) =        2.891
--


++    Primitive basis info:
      ---------------------


                    *****************************************************
                    ******** Primitive Basis Functions (Valence) ********
                    *****************************************************


 Basis set:N.6-31G**.........                                                              

                  Type         
                   s
           No.      Exponent    Contraction Coefficients
            1  0.417351146D+04   0.001835   0.000000   0.000000
            2  0.627457911D+03   0.013995   0.000000   0.000000
            3  0.142902093D+03   0.068587   0.000000   0.000000
            4  0.402343293D+02   0.232241   0.000000   0.000000
            5  0.128202129D+02   0.469070   0.000000   0.000000
            6  0.116263619D+02   0.000000  -0.114961   0.000000
            7  0.439043701D+01   0.360455   0.000000   0.000000
            8  0.271627981D+01   0.000000  -0.169117   0.000000
            9  0.772218397D+00   0.000000   1.145852   0.000000
           10  0.212031497D+00   0.000000   0.000000   1.000000

                  Type         
                   p
           No.      Exponent    Contraction Coefficients
           11  0.116263619D+02   0.067580   0.000000
           12  0.271627981D+01   0.323907   0.000000
           13  0.772218397D+00   0.740895   0.000000
           14  0.212031497D+00   0.000000   1.000000

                  Type         
                   d
           No.      Exponent    Contraction Coefficients
           15  0.800000000D+00   1.000000


 Basis set:C.6-31G**.........                                                              

                  Type         
                   s
           No.      Exponent    Contraction Coefficients
           16  0.304752488D+04   0.001835   0.000000   0.000000
           17  0.457369518D+03   0.014037   0.000000   0.000000
           18  0.103948685D+03   0.068843   0.000000   0.000000
           19  0.292101553D+02   0.232184   0.000000   0.000000
           20  0.928666296D+01   0.467941   0.000000   0.000000
           21  0.786827235D+01   0.000000  -0.119332   0.000000
           22  0.316392696D+01   0.362312   0.000000   0.000000
           23  0.188128854D+01   0.000000  -0.160854   0.000000
           24  0.544249258D+00   0.000000   1.143456   0.000000
           25  0.168714478D+00   0.000000   0.000000   1.000000

                  Type         
                   p
           No.      Exponent    Contraction Coefficients
           26  0.786827235D+01   0.068999   0.000000
           27  0.188128854D+01   0.316424   0.000000
           28  0.544249258D+00   0.744308   0.000000
           29  0.168714478D+00   0.000000   1.000000

                  Type         
                   d
           No.      Exponent    Contraction Coefficients
           30  0.800000000D+00   1.000000


 Basis set:N.6-31G**.........                                                              

                  Type         
                   s
           No.      Exponent    Contraction Coefficients
           31  0.417351146D+04   0.001835   0.000000   0.000000
           32  0.627457911D+03   0.013995   0.000000   0.000000
           33  0.142902093D+03   0.068587   0.000000   0.000000
           34  0.402343293D+02   0.232241   0.000000   0.000000
           35  0.128202129D+02   0.469070   0.000000   0.000000
           36  0.116263619D+02   0.000000  -0.114961   0.000000
           37  0.439043701D+01   0.360455   0.000000   0.000000
           38  0.271627981D+01   0.000000  -0.169117   0.000000
           39  0.772218397D+00   0.000000   1.145852   0.000000
           40  0.212031497D+00   0.000000   0.000000   1.000000

                  Type         
                   p
           No.      Exponent    Contraction Coefficients
           41  0.116263619D+02   0.067580   0.000000
           42  0.271627981D+01   0.323907   0.000000
           43  0.772218397D+00   0.740895   0.000000
           44  0.212031497D+00   0.000000   1.000000

                  Type         
                   d
           No.      Exponent    Contraction Coefficients
           45  0.800000000D+00   1.000000


 Basis set:C.6-31G**.........                                                              

                  Type         
                   s
           No.      Exponent    Contraction Coefficients
           46  0.304752488D+04   0.001835   0.000000   0.000000
           47  0.457369518D+03   0.014037   0.000000   0.000000
           48  0.103948685D+03   0.068843   0.000000   0.000000
           49  0.292101553D+02   0.232184   0.000000   0.000000
           50  0.928666296D+01   0.467941   0.000000   0.000000
           51  0.786827235D+01   0.000000  -0.119332   0.000000
           52  0.316392696D+01   0.362312   0.000000   0.000000
           53  0.188128854D+01   0.000000  -0.160854   0.000000
           54  0.544249258D+00   0.000000   1.143456   0.000000
           55  0.168714478D+00   0.000000   0.000000   1.000000

                  Type         
                   p
           No.      Exponent    Contraction Coefficients
           56  0.786827235D+01   0.068999   0.000000
           57  0.188128854D+01   0.316424   0.000000
           58  0.544249258D+00   0.744308   0.000000
           59  0.168714478D+00   0.000000   1.000000

                  Type         
                   d
           No.      Exponent    Contraction Coefficients
           60  0.800000000D+00   1.000000


 Basis set:O.6-31G**.........                                                              

                  Type         
                   s
           No.      Exponent    Contraction Coefficients
           91  0.548467166D+04   0.001831   0.000000   0.000000
           92  0.825234946D+03   0.013950   0.000000   0.000000
           93  0.188046958D+03   0.068445   0.000000   0.000000
           94  0.529645000D+02   0.232714   0.000000   0.000000
           95  0.168975704D+02   0.470193   0.000000   0.000000
           96  0.155396162D+02   0.000000  -0.110778   0.000000
           97  0.579963534D+01   0.358521   0.000000   0.000000
           98  0.359993359D+01   0.000000  -0.148026   0.000000
           99  0.101376175D+01   0.000000   1.130767   0.000000
          100  0.270005823D+00   0.000000   0.000000   1.000000

                  Type         
                   p
           No.      Exponent    Contraction Coefficients
          101  0.155396162D+02   0.070874   0.000000
          102  0.359993359D+01   0.339753   0.000000
          103  0.101376175D+01   0.727159   0.000000
          104  0.270005823D+00   0.000000   1.000000

                  Type         
                   d
           No.      Exponent    Contraction Coefficients
          105  0.800000000D+00   1.000000


 Basis set:H.6-31G**.........                                                              

                  Type         
                   s
           No.      Exponent    Contraction Coefficients
          121  0.187311370D+02   0.033495   0.000000
          122  0.282539437D+01   0.234727   0.000000
          123  0.640121692D+00   0.813757   0.000000
          124  0.161277759D+00   0.000000   1.000000

                  Type         
                   p
           No.      Exponent    Contraction Coefficients
          125  0.110000000D+01   1.000000


 Basis set:C.6-31G**.........                                                              

                  Type         
                   s
           No.      Exponent    Contraction Coefficients
          131  0.304752488D+04   0.001835   0.000000   0.000000
          132  0.457369518D+03   0.014037   0.000000   0.000000
          133  0.103948685D+03   0.068843   0.000000   0.000000
          134  0.292101553D+02   0.232184   0.000000   0.000000
          135  0.928666296D+01   0.467941   0.000000   0.000000
          136  0.786827235D+01   0.000000  -0.119332   0.000000
          137  0.316392696D+01   0.362312   0.000000   0.000000
          138  0.188128854D+01   0.000000  -0.160854   0.000000
          139  0.544249258D+00   0.000000   1.143456   0.000000
          140  0.168714478D+00   0.000000   0.000000   1.000000

                  Type         
                   p
           No.      Exponent    Contraction Coefficients
          141  0.786827235D+01   0.068999   0.000000
          142  0.188128854D+01   0.316424   0.000000
          143  0.544249258D+00   0.744308   0.000000
          144  0.168714478D+00   0.000000   1.000000

                  Type         
                   d
           No.      Exponent    Contraction Coefficients
          145  0.800000000D+00   1.000000


 Basis set:H.6-31G**.........                                                              

                  Type         
                   s
           No.      Exponent    Contraction Coefficients
          146  0.187311370D+02   0.033495   0.000000
          147  0.282539437D+01   0.234727   0.000000
          148  0.640121692D+00   0.813757   0.000000
          149  0.161277759D+00   0.000000   1.000000

                  Type         
                   p
           No.      Exponent    Contraction Coefficients
          150  0.110000000D+01   1.000000

  Number of primitives                                  294
  Number of basis functions                             165

--


++    SO/AO info:
      -----------

                    **************************************************
                    ********** Petite list Basis Functions ***********
                    **************************************************


           Basis functions generated by E  

 Basis Label        Type   Center
    1  N1            1s       1
    2  N1            2s       1
    3  N1            *s       1
    4  N1            2px      1
    5  N1            *px      1
    6  N1            2py      1
    7  N1            *py      1
    8  N1            2pz      1
    9  N1            *pz      1
   10  N1            *200     1
   11  N1            *110     1
   12  N1            *101     1
   13  N1            *020     1
   14  N1            *011     1
   15  N1            *002     1
   16  C2            1s       2
   17  C2            2s       2
   18  C2            *s       2
   19  C2            2px      2
   20  C2            *px      2
   21  C2            2py      2
   22  C2            *py      2
   23  C2            2pz      2
   24  C2            *pz      2
   25  C2            *200     2
   26  C2            *110     2
   27  C2            *101     2
   28  C2            *020     2
   29  C2            *011     2
   30  C2            *002     2
   31  N3            1s       3
   32  N3            2s       3
   33  N3            *s       3
   34  N3            2px      3
   35  N3            *px      3
   36  N3            2py      3
   37  N3            *py      3
   38  N3            2pz      3
   39  N3            *pz      3
   40  N3            *200     3
   41  N3            *110     3
   42  N3            *101     3
   43  N3            *020     3
   44  N3            *011     3
   45  N3            *002     3
   46  C4            1s       4
   47  C4            2s       4
   48  C4            *s       4
   49  C4            2px      4
   50  C4            *px      4
   51  C4            2py      4
   52  C4            *py      4
   53  C4            2pz      4
   54  C4            *pz      4
   55  C4            *200     4
   56  C4            *110     4
   57  C4            *101     4
   58  C4            *020     4
   59  C4            *011     4
   60  C4            *002     4
   61  C5            1s       5
   62  C5            2s       5
   63  C5            *s       5
   64  C5            2px      5
   65  C5            *px      5
   66  C5            2py      5
   67  C5            *py      5
   68  C5            2pz      5
   69  C5            *pz      5
   70  C5            *200     5
   71  C5            *110     5
   72  C5            *101     5
   73  C5            *020     5
   74  C5            *011     5
   75  C5            *002     5
   76  C6            1s       6
   77  C6            2s       6
   78  C6            *s       6
   79  C6            2px      6
   80  C6            *px      6
   81  C6            2py      6
   82  C6            *py      6
   83  C6            2pz      6
   84  C6            *pz      6
   85  C6            *200     6
   86  C6            *110     6
   87  C6            *101     6
   88  C6            *020     6
   89  C6            *011     6
   90  C6            *002     6
   91  O7            1s       7
   92  O7            2s       7
   93  O7            *s       7
   94  O7            2px      7
   95  O7            *px      7
   96  O7            2py      7
   97  O7            *py      7
   98  O7            2pz      7
   99  O7            *pz      7
  100  O7            *200     7
  101  O7            *110     7
  102  O7            *101     7
  103  O7            *020     7
  104  O7            *011     7
  105  O7            *002     7
  106  O8            1s       8
  107  O8            2s       8
  108  O8            *s       8
  109  O8            2px      8
  110  O8            *px      8
  111  O8            2py      8
  112  O8            *py      8
  113  O8            2pz      8
  114  O8            *pz      8
  115  O8            *200     8
  116  O8            *110     8
  117  O8            *101     8
  118  O8            *020     8
  119  O8            *011     8
  120  O8            *002     8
  121  H9            1s       9
  122  H9            *s       9
  123  H9            *px      9
  124  H9            *py      9
  125  H9            *pz      9
  126  H10           1s      10
  127  H10           *s      10
  128  H10           *px     10
  129  H10           *py     10
  130  H10           *pz     10
  131  C11           1s      11
  132  C11           2s      11
  133  C11           *s      11
  134  C11           2px     11
  135  C11           *px     11
  136  C11           2py     11
  137  C11           *py     11
  138  C11           2pz     11
  139  C11           *pz     11
  140  C11           *200    11
  141  C11           *110    11
  142  C11           *101    11
  143  C11           *020    11
  144  C11           *011    11
  145  C11           *002    11
  146  H12           1s      12
  147  H12           *s      12
  148  H12           *px     12
  149  H12           *py     12
  150  H12           *pz     12
  151  H13           1s      13
  152  H13           *s      13
  153  H13           *px     13
  154  H13           *py     13
  155  H13           *pz     13
  156  H14           1s      14
  157  H14           *s      14
  158  H14           *px     14
  159  H14           *py     14
  160  H14           *pz     14
  161  H15           1s      15
  162  H15           *s      15
  163  H15           *px     15
  164  H15           *py     15
  165  H15           *pz     15

      Basis set specifications :
      Symmetry species        a  
      Basis functions         165
--


            Nuclear Potential Energy            440.63328427 au

--- Stop Module: gateway at Wed Mar 29 16:38:27 2023 /rc=_RC_ALL_IS_WELL_ ---
*** files: scf.RICDLib xmldump
    saved to directory /home/marlenne/thymine/Thymine/MOLCAS/2.Thymine_opt_fabrizio

*** symbolic link created: INPORB -> scf.ScfOrb
--- Start Module: seward at Wed Mar 29 16:38:27 2023 ---

()()()()()()()()()()()()()()()()()()()()()()()()()()()()()()()()()()()()()()()()()()()()()()()()()()

                                              &SEWARD

                                   only a single process is used
                       available to each process: 4.0 GB of memory, 1 thread?
                                             pid: 29593
()()()()()()()()()()()()()()()()()()()()()()()()()()()()()()()()()()()()()()()()()()()()()()()()()()


  Weights used for alignment and distance                     
  mat. size =    15x    1
       14.0030740044299993
       12.0000000000000000
       14.0030740044299993
       12.0000000000000000
       12.0000000000000000
       12.0000000000000000
       15.9949146195700003
       15.9949146195700003
        1.0078250322300000
        1.0078250322300000
       12.0000000000000000
        1.0078250322300000
        1.0078250322300000
        1.0078250322300000
        1.0078250322300000

               SEWARD will generate:
                  Multipole Moment integrals up to order  2
                  Kinetic Energy integrals
                  Nuclear Attraction integrals (point charge)
                  One-Electron Hamiltonian integrals
                  Velocity integrals
                  Orbital angular momentum around ( 0.1227 -0.0022  0.0000 )
                  Velocity quadrupole around ( 0.1227 -0.0022  0.0000 )
                  RI decomposed two-electron repulsion integrals stored Cholesky style
                   - acCD auxiliary basis
                   - CD Threshold:   0.10E-03

                   Integrals are discarded if absolute value <: 0.10E-13
                   Integral cutoff threshold is set to       <: 0.10E-15

++    SO/AO info:
      -----------

                    **************************************************
                    ********** Petite list Basis Functions ***********
                    **************************************************


           Basis functions generated by E  

 Basis Label        Type   Center
    1  N1            1s       1
    2  N1            2s       1
    3  N1            *s       1
    4  N1            2px      1
    5  N1            *px      1
    6  N1            2py      1
    7  N1            *py      1
    8  N1            2pz      1
    9  N1            *pz      1
   10  N1            *200     1
   11  N1            *110     1
   12  N1            *101     1
   13  N1            *020     1
   14  N1            *011     1
   15  N1            *002     1
   16  C2            1s       2
   17  C2            2s       2
   18  C2            *s       2
   19  C2            2px      2
   20  C2            *px      2
   21  C2            2py      2
   22  C2            *py      2
   23  C2            2pz      2
   24  C2            *pz      2
   25  C2            *200     2
   26  C2            *110     2
   27  C2            *101     2
   28  C2            *020     2
   29  C2            *011     2
   30  C2            *002     2
   31  N3            1s       3
   32  N3            2s       3
   33  N3            *s       3
   34  N3            2px      3
   35  N3            *px      3
   36  N3            2py      3
   37  N3            *py      3
   38  N3            2pz      3
   39  N3            *pz      3
   40  N3            *200     3
   41  N3            *110     3
   42  N3            *101     3
   43  N3            *020     3
   44  N3            *011     3
   45  N3            *002     3
   46  C4            1s       4
   47  C4            2s       4
   48  C4            *s       4
   49  C4            2px      4
   50  C4            *px      4
   51  C4            2py      4
   52  C4            *py      4
   53  C4            2pz      4
   54  C4            *pz      4
   55  C4            *200     4
   56  C4            *110     4
   57  C4            *101     4
   58  C4            *020     4
   59  C4            *011     4
   60  C4            *002     4
   61  C5            1s       5
   62  C5            2s       5
   63  C5            *s       5
   64  C5            2px      5
   65  C5            *px      5
   66  C5            2py      5
   67  C5            *py      5
   68  C5            2pz      5
   69  C5            *pz      5
   70  C5            *200     5
   71  C5            *110     5
   72  C5            *101     5
   73  C5            *020     5
   74  C5            *011     5
   75  C5            *002     5
   76  C6            1s       6
   77  C6            2s       6
   78  C6            *s       6
   79  C6            2px      6
   80  C6            *px      6
   81  C6            2py      6
   82  C6            *py      6
   83  C6            2pz      6
   84  C6            *pz      6
   85  C6            *200     6
   86  C6            *110     6
   87  C6            *101     6
   88  C6            *020     6
   89  C6            *011     6
   90  C6            *002     6
   91  O7            1s       7
   92  O7            2s       7
   93  O7            *s       7
   94  O7            2px      7
   95  O7            *px      7
   96  O7            2py      7
   97  O7            *py      7
   98  O7            2pz      7
   99  O7            *pz      7
  100  O7            *200     7
  101  O7            *110     7
  102  O7            *101     7
  103  O7            *020     7
  104  O7            *011     7
  105  O7            *002     7
  106  O8            1s       8
  107  O8            2s       8
  108  O8            *s       8
  109  O8            2px      8
  110  O8            *px      8
  111  O8            2py      8
  112  O8            *py      8
  113  O8            2pz      8
  114  O8            *pz      8
  115  O8            *200     8
  116  O8            *110     8
  117  O8            *101     8
  118  O8            *020     8
  119  O8            *011     8
  120  O8            *002     8
  121  H9            1s       9
  122  H9            *s       9
  123  H9            *px      9
  124  H9            *py      9
  125  H9            *pz      9
  126  H10           1s      10
  127  H10           *s      10
  128  H10           *px     10
  129  H10           *py     10
  130  H10           *pz     10
  131  C11           1s      11
  132  C11           2s      11
  133  C11           *s      11
  134  C11           2px     11
  135  C11           *px     11
  136  C11           2py     11
  137  C11           *py     11
  138  C11           2pz     11
  139  C11           *pz     11
  140  C11           *200    11
  141  C11           *110    11
  142  C11           *101    11
  143  C11           *020    11
  144  C11           *011    11
  145  C11           *002    11
  146  H12           1s      12
  147  H12           *s      12
  148  H12           *px     12
  149  H12           *py     12
  150  H12           *pz     12
  151  H13           1s      13
  152  H13           *s      13
  153  H13           *px     13
  154  H13           *py     13
  155  H13           *pz     13
  156  H14           1s      14
  157  H14           *s      14
  158  H14           *px     14
  159  H14           *py     14
  160  H14           *pz     14
  161  H15           1s      15
  162  H15           *s      15
  163  H15           *px     15
  164  H15           *py     15
  165  H15           *pz     15

      Basis set specifications :
      Symmetry species        a  
      Basis functions         165
--


            Nuclear Potential Energy            440.63328427 au


      Basis set specifications :
      Symmetry species         a  
      Basis functions          165


Seward processing 2-center and 3-center ERIs

 2-center integrals:
      CPU time :    0.19 sec.
      Wall time:    0.20 sec.
 3-center integrals:
      CPU time :    1.23 sec.
      Wall time:    1.23 sec.
 Block-transpose:
      CPU time :    0.03 sec.
      Wall time:    0.08 sec.
 Diagonal vector:
      CPU time :    0.03 sec.
      Wall time:    0.04 sec.
      RI vectors               720



      Input file to MOLDEN was generated!

++ I/O STATISTICS
 
  I. General I/O information
  - - - - - - - - - - - - - - - - - - - - - - - - - - - - - - - - - - - - - - - - - - -
  Unit  Name          Flsize      Write/Read            MBytes           Write/Read
                      (MBytes)       Calls              In/Out           Time, sec.
  - - - - - - - - - - - - - - - - - - - - - - - - - - - - - - - - - - - - - - - - - - -
   1  RUNFILE           0.70 .    1386/    7892 .     10.2/     57.9 .       0/       0
   2  NQGRID            0.00 .       4/       0 .      0.0/      0.0 .       0/       0
   3  ONEINT            4.50 .      62/     110 .     47.6/     17.0 .       0/       0
   4  AVEC00            0.00 .     721/    1441 .      5.9/     11.9 .       0/       0
   5  ZMAT00            0.00 .       1/       0 .      4.0/      0.0 .       0/       0
   6  AMAT00            1.98 .       2/       1 .      4.0/      2.0 .       0/       0
   7  QMAT00            0.00 .       1/       1 .      2.0/      2.0 .       0/       0
   8  QVEC00            3.96 .     720/       1 .      4.0/      4.0 .       0/       0
   9  RVEC00           74.59 .     770/     770 .     74.6/     74.6 .       0/       0
  10  CHRED             0.22 .       4/       0 .      0.2/      0.0 .       0/       0
  11  CHVEC1           74.73 .       1/       0 .     74.6/      0.0 .       0/       0
  12  CHORST            0.03 .      12/       0 .      0.0/      0.0 .       0/       0
  13  CHOMAP            0.01 .       1/       0 .      0.0/      0.0 .       0/       0
  14  CHODIAG           0.10 .       1/       0 .      0.1/      0.0 .       0/       0
  - - - - - - - - - - - - - - - - - - - - - - - - - - - - - - - - - - - - - - - - - - -
   *  TOTAL           160.81 .    3686/   10216 .    227.1/    169.2 .       0/       0
  - - - - - - - - - - - - - - - - - - - - - - - - - - - - - - - - - - - - - - - - - - -
 
  II. I/O Access Patterns
  - - - - - - - - - - - - - - - - - - - -
  Unit  Name               % of random
                         Write/Read calls
  - - - - - - - - - - - - - - - - - - - -
   1  RUNFILE             28.6/   9.9
   2  NQGRID              25.0/   0.0
   3  ONEINT              95.2/  10.9
   4  AVEC00              99.9/  99.6
   5  ZMAT00               0.0/   0.0
   6  AMAT00              50.0/ 100.0
   7  QMAT00               0.0/ 100.0
   8  QVEC00               0.0/ 100.0
   9  RVEC00               0.0/   0.1
  10  CHRED                0.0/   0.0
  11  CHVEC1               0.0/   0.0
  12  CHORST               0.0/   0.0
  13  CHOMAP               0.0/   0.0
  14  CHODIAG              0.0/   0.0
  - - - - - - - - - - - - - - - - - - - -
--
--- Stop Module: seward at Wed Mar 29 16:38:30 2023 /rc=_RC_ALL_IS_WELL_ ---
*** files: scf.GssOrb scf.guessorb.molden xmldump
    saved to directory /home/marlenne/thymine/Thymine/MOLCAS/2.Thymine_opt_fabrizio
--- Module seward spent 2 seconds ---

*** symbolic link created: INPORB -> scf.ScfOrb
--- Start Module: scf at Wed Mar 29 16:38:34 2023 ---

()()()()()()()()()()()()()()()()()()()()()()()()()()()()()()()()()()()()()()()()()()()()()()()()()()

                                                &SCF

                                   only a single process is used
                       available to each process: 4.0 GB of memory, 1 thread?
                                             pid: 29596
()()()()()()()()()()()()()()()()()()()()()()()()()()()()()()()()()()()()()()()()()()()()()()()()()()

++    Input section:
      --------------

      Header of the integral files:
      
       Integrals generated by Gateway/Seward, Wed Mar 29 16:38:28 2023


      Cartesian coordinates in Angstrom:
      -----------------------------------------------------
      No.  Label        X            Y            Z        
      -----------------------------------------------------
       1   N1         0.15573400  -1.65906200   0.00000000
       2   C2         1.35600200  -0.97894500   0.00000000
       3   N3         1.19595000   0.39106000   0.00000000
       4   C4         0.00000000   1.11535900   0.00000000
       5   C5        -1.21428800   0.29587900   0.00000000
       6   C6        -1.07362700  -1.03729900   0.00000000
       7   O7         2.43107000  -1.53059400   0.00000000
       8   O8         0.01763600   2.32620900   0.00000000
       9   H9         0.23027300  -2.66417900   0.00000000
      10   H10        2.04984000   0.93388100   0.00000000
      11   C11       -2.53344700   1.00026400   0.00000000
      12   H12       -1.92502900  -1.70611000   0.00000000
      13   H13       -3.35814000   0.28649500   0.00000000
      14   H14       -2.62810400   1.64473500   0.87613200
      15   H15       -2.62810400   1.64473500  -0.87613200
      -----------------------------------------------------
      Nuclear repulsion energy =  440.63328427
--

++    Orbital specifications:
      -----------------------

      Symmetry species               1
                                     a
      Frozen orbitals                0
      Occupied orbitals             33
      Secondary orbitals           132
      Deleted orbitals               0
      Total number of orbitals     165
      Number of basis functions    165
--

      Molecular charge                           0.000

++    Optimization specifications:
      ----------------------------

      SCF Algorithm: LK-RI/DF
      The actual AO density is used
      Number of density matrices in core                5
      Maximum number of NDDO SCF iterations           400
      Maximum number of HF SCF iterations             400
      Threshold for SCF energy change            0.10E-08
      Threshold for density matrix               0.10E-03
      Threshold for Fock matrix                  0.15E-03
      Threshold for linear dependence            0.10E-08
      Threshold at which DIIS is turned on       0.15E+00
      Threshold at which QNR/C2DIIS is turned on 0.75E-01
      Threshold for Norm(delta) (QNR/C2DIIS)     0.20E-04
      DIIS extrapolation of the SCF procedure
      All orbitals punched on: SCFORB
--

      Input vectors read from INPORB
      Orbital file label: * SCF orbitals


++ Convergence information
                                   SCF        iterations: Energy and convergence statistics

Iter     Tot. SCF        One-elec.       Two-elec.     Energy      Max Dij or  Max Fij      DNorm      TNorm      AccCon     Time
         Energy          Energy          Energy        Change      Delta Norm                                                in Sec.
   1  -421.803138990 -1462.431038974   599.994615715   0.00E+00    0.34E+00*   0.12E+01*    0.13E+02   0.44E+03   None         1.
   2  -450.225215156 -1489.634047391   598.775547967  -0.28E+02*   0.27E+00*   0.32E+00*    0.10E+02   0.44E+03   EDIIS        1.
   3  -451.312581487 -1489.018788421   597.072922666  -0.11E+01*   0.21E+00*   0.75E-01*    0.96E+01   0.44E+03   EDIIS        1.
   4  -451.476561259 -1489.146925426   597.037079898  -0.16E+00*   0.70E-01*   0.39E-01*    0.95E+01   0.44E+03   EDIIS        1.
   5  -451.509978753 -1489.458656736   597.315393715  -0.33E-01*   0.55E-01*   0.18E-01*    0.95E+01   0.44E+03   EDIIS        1.
   6  -451.517889562 -1489.268293615   597.117119784  -0.79E-02*   0.55E-02*   0.60E-02*    0.95E+01   0.44E+03   c2DIIS       1.
   7  -451.521732403 -1489.332894180   597.177877509  -0.38E-02*   0.61E-02*   0.13E-02*    0.95E+01   0.44E+03   QNRc2DIIS    1.
   8  -451.521784581 -1489.349692381   597.194623532  -0.52E-04*   0.27E-02*   0.95E-03*    0.95E+01   0.44E+03   QNRc2DIIS    1.
   9  -451.521807494 -1489.342383176   597.187291414  -0.23E-04*   0.15E-02*   0.17E-03*    0.95E+01   0.44E+03   QNRc2DIIS    1.
  10  -451.521810138 -1489.341757142   597.186662736  -0.26E-05*   0.46E-03*   0.14E-03     0.95E+01   0.44E+03   QNRc2DIIS    1.
  11  -451.521810488 -1489.341977199   597.186882442  -0.35E-06*   0.22E-03*   0.28E-04     0.95E+01   0.44E+03   QNRc2DIIS    1.
  12  -451.521810544 -1489.341945298   597.186850485  -0.56E-07*   0.77E-04*   0.18E-04     0.95E+01   0.44E+03   QNRc2DIIS    1.
  13  -451.521810554 -1489.341903769   597.186808946  -0.10E-07*   0.16E-04    0.40E-05     0.95E+01   0.44E+03   QNRc2DIIS    1.
  14  -451.521810555 -1489.341982842   597.186888018  -0.11E-08*   0.10E-04    0.15E-05     0.95E+01   0.44E+03   QNRc2DIIS    1.
  15  -451.521810555 -1489.341930783   597.186835960   0.17E-11    0.43E-05    0.14E-05     0.95E+01   0.44E+03   QNRc2DIIS    1.
  16  -451.521810555 -1489.341950913   597.186856090  -0.53E-10    0.10E-05    0.16E-06     0.95E+01   0.44E+03   QNRc2DIIS    1.

       Convergence after 16 Macro Iterations
--

 *****************************************************************************************************************************
 *                                                                                                                           *
 *                                             SCF/KS-DFT Program, Final results                                             *
 *                                                                                                                           *
 *                                                                                                                           *
 *                                                                                                                           *
 *                                                       Final Results                                                       *
 *                                                                                                                           *
 *****************************************************************************************************************************

::    Total SCF energy                               -451.5218105552
      One-electron energy                           -1489.3419509132
      Two-electron energy                             597.1868560896
      Nuclear repulsion energy                        440.6332842684
      Kinetic energy (interpolated)                   450.4227719350
      Virial theorem                                    1.0024400157
      Total spin, S(S+1)                                0.0000000000
      Total spin, S                                     0.0000000000
      Max non-diagonal density matrix element           0.0000008748
      Max non-diagonal Fock matrix element              0.0000000732


      All orbitals with orbital energies smaller than  E(LUMO)+0.5 are printed

++    Molecular orbitals:
      -------------------

      Title: SCF orbitals

      Molecular orbitals for symmetry species 1: a  

          Orbital            1         2         3         4         5         6         7         8         9        10    
          Energy          -20.5460  -20.5451  -15.6390  -15.6249  -11.4130  -11.3761  -11.3265  -11.2574  -11.2381   -1.4320
          Occ. No.          2.0000    2.0000    2.0000    2.0000    2.0000    2.0000    2.0000    2.0000    2.0000    2.0000

        1 N1     1s        -0.0000   -0.0000    0.9950    0.0008   -0.0002    0.0000   -0.0002    0.0001   -0.0000   -0.0661
        2 N1     2s        -0.0000   -0.0001    0.0255    0.0000    0.0004    0.0002    0.0005    0.0001   -0.0002    0.1332
        3 N1     *s         0.0002    0.0003   -0.0048   -0.0008   -0.0004   -0.0022   -0.0011   -0.0024    0.0014    0.1504
        4 N1     2px        0.0000   -0.0000   -0.0000   -0.0001    0.0001    0.0000   -0.0001   -0.0000    0.0000    0.0316
        5 N1     *px        0.0001    0.0001   -0.0001    0.0004   -0.0010   -0.0014    0.0028    0.0004   -0.0003    0.0142
        6 N1     2py        0.0000   -0.0000    0.0002   -0.0000    0.0001   -0.0000    0.0001    0.0000   -0.0000    0.0242
        7 N1     *py        0.0000    0.0001   -0.0016   -0.0007   -0.0009   -0.0008   -0.0018   -0.0010    0.0005    0.0298
        8 N1     2pz        0.0000   -0.0000    0.0000    0.0000   -0.0000    0.0000    0.0000    0.0000    0.0000    0.0000
        9 N1     *pz        0.0000   -0.0000   -0.0000    0.0000   -0.0000   -0.0000    0.0000   -0.0000   -0.0000    0.0000
       10 N1     *200      -0.0000   -0.0001   -0.0020    0.0000   -0.0003    0.0000   -0.0004    0.0001   -0.0000    0.0054
       11 N1     *110       0.0000    0.0001   -0.0000   -0.0000   -0.0002   -0.0000    0.0003   -0.0001   -0.0000    0.0035
       12 N1     *101       0.0000   -0.0000    0.0000    0.0000   -0.0000   -0.0000   -0.0000   -0.0000    0.0000   -0.0000
       13 N1     *020       0.0000    0.0001   -0.0019    0.0000   -0.0002   -0.0000   -0.0002    0.0002   -0.0000    0.0004
       14 N1     *011       0.0000    0.0000    0.0000   -0.0000    0.0000    0.0000    0.0000    0.0000   -0.0000    0.0000
       15 N1     *002       0.0000   -0.0000   -0.0019   -0.0000    0.0001    0.0000    0.0001    0.0001   -0.0001   -0.0027
       16 C2     1s         0.0000   -0.0000    0.0000    0.0000    0.9958    0.0002    0.0001    0.0000   -0.0000   -0.1252
       17 C2     2s         0.0000    0.0005    0.0002    0.0002    0.0261   -0.0005   -0.0004   -0.0000   -0.0000    0.2497
       18 C2     *s         0.0000   -0.0008    0.0017    0.0017   -0.0020   -0.0008    0.0008    0.0008   -0.0000    0.0151
       19 C2     2px       -0.0000   -0.0001   -0.0002   -0.0001   -0.0006    0.0000    0.0000   -0.0000    0.0000    0.0774
       20 C2     *px        0.0003   -0.0005   -0.0021   -0.0010    0.0038   -0.0043   -0.0024   -0.0012    0.0004   -0.0016
       21 C2     2py        0.0000    0.0000   -0.0001    0.0002    0.0003   -0.0002    0.0000   -0.0000    0.0000   -0.0383
       22 C2     *py       -0.0000    0.0002   -0.0003    0.0019   -0.0018   -0.0009    0.0040    0.0007    0.0001    0.0023
       23 C2     2pz       -0.0000    0.0000   -0.0000   -0.0000   -0.0000    0.0000    0.0000    0.0000    0.0000    0.0000
       24 C2     *pz       -0.0000    0.0000    0.0000   -0.0000    0.0000   -0.0000   -0.0000    0.0000    0.0000    0.0000
       25 C2     *200       0.0000   -0.0004   -0.0000   -0.0000   -0.0003   -0.0001    0.0001   -0.0000   -0.0000    0.0091
       26 C2     *110       0.0000    0.0004   -0.0001   -0.0000   -0.0003    0.0000    0.0000   -0.0000    0.0000   -0.0139
       27 C2     *101      -0.0000    0.0000    0.0000   -0.0000    0.0000   -0.0000   -0.0000   -0.0000   -0.0000    0.0000
       28 C2     *020       0.0000   -0.0001   -0.0001   -0.0001   -0.0006   -0.0000    0.0000   -0.0000    0.0000   -0.0004
       29 C2     *011      -0.0000   -0.0000    0.0000   -0.0000   -0.0000   -0.0000   -0.0000    0.0000    0.0000   -0.0000
       30 C2     *002       0.0000   -0.0000   -0.0000   -0.0000   -0.0014   -0.0001   -0.0001   -0.0000   -0.0000   -0.0112
       31 N3     1s        -0.0000   -0.0000   -0.0007    0.9950   -0.0003   -0.0003    0.0001    0.0000   -0.0001   -0.0739
       32 N3     2s        -0.0000   -0.0001    0.0000    0.0256    0.0003    0.0003    0.0003    0.0001   -0.0002    0.1493
       33 N3     *s         0.0002    0.0003   -0.0009   -0.0054   -0.0001    0.0011   -0.0035   -0.0017    0.0020    0.1631
       34 N3     2px        0.0000   -0.0000   -0.0000   -0.0001   -0.0000   -0.0002    0.0000   -0.0000    0.0000   -0.0074
       35 N3     *px       -0.0002   -0.0001    0.0008    0.0014   -0.0002    0.0017    0.0004    0.0006   -0.0011   -0.0193
       36 N3     2py       -0.0000    0.0000    0.0000   -0.0002   -0.0001    0.0002   -0.0000   -0.0000   -0.0000   -0.0308
       37 N3     *py        0.0002   -0.0002    0.0001    0.0009    0.0017   -0.0032    0.0019    0.0004    0.0006   -0.0215
       38 N3     2pz       -0.0000   -0.0000    0.0000   -0.0000   -0.0000   -0.0000   -0.0000   -0.0000    0.0000    0.0000
       39 N3     *pz        0.0000   -0.0000   -0.0000    0.0000   -0.0000   -0.0000   -0.0000   -0.0000   -0.0000   -0.0000
       40 N3     *200       0.0000   -0.0000    0.0000   -0.0019   -0.0002   -0.0004    0.0001    0.0001   -0.0000    0.0011
       41 N3     *110       0.0001    0.0001   -0.0000    0.0001    0.0000    0.0003   -0.0000    0.0000   -0.0001   -0.0059
       42 N3     *101       0.0000    0.0000   -0.0000   -0.0000   -0.0000    0.0000   -0.0000    0.0000    0.0000    0.0000
       43 N3     *020      -0.0001    0.0000    0.0000   -0.0019   -0.0004   -0.0003    0.0000    0.0001   -0.0001    0.0059
       44 N3     *011      -0.0000   -0.0000    0.0000    0.0000    0.0000   -0.0000    0.0000    0.0000   -0.0000   -0.0000
       45 N3     *002      -0.0000   -0.0000   -0.0000   -0.0019    0.0001    0.0000    0.0001    0.0000   -0.0001   -0.0030
       46 C4     1s        -0.0000    0.0000   -0.0000   -0.0000   -0.0005    0.9959   -0.0001   -0.0035    0.0001   -0.0563
       47 C4     2s         0.0005    0.0001   -0.0000    0.0001   -0.0007    0.0267   -0.0003   -0.0000   -0.0002    0.1138
       48 C4     *s        -0.0006   -0.0002    0.0015    0.0020    0.0021   -0.0070    0.0016    0.0052   -0.0009   -0.0038
       49 C4     2px        0.0000    0.0000    0.0000    0.0002   -0.0001    0.0008    0.0000    0.0001    0.0001    0.0229
       50 C4     *px       -0.0002    0.0001   -0.0002    0.0013   -0.0016    0.0044   -0.0013   -0.0015   -0.0018   -0.0073
       51 C4     2py       -0.0001   -0.0000   -0.0000   -0.0001    0.0001   -0.0001   -0.0000    0.0000   -0.0000    0.0303
       52 C4     *py       -0.0007    0.0005   -0.0010   -0.0023   -0.0051    0.0071   -0.0013   -0.0015    0.0007    0.0185
       53 C4     2pz       -0.0000   -0.0000   -0.0000   -0.0000    0.0000   -0.0000   -0.0000    0.0000   -0.0000   -0.0000
       54 C4     *pz       -0.0000    0.0000    0.0000   -0.0000    0.0000    0.0000   -0.0000    0.0000    0.0000   -0.0000
       55 C4     *200      -0.0000    0.0000    0.0000   -0.0001   -0.0000   -0.0007    0.0000   -0.0003   -0.0000   -0.0013
       56 C4     *110      -0.0000   -0.0000    0.0000    0.0000   -0.0000   -0.0001    0.0001   -0.0002    0.0001   -0.0030
       57 C4     *101       0.0000    0.0000   -0.0000   -0.0000    0.0000   -0.0000   -0.0000   -0.0000    0.0000    0.0000
       58 C4     *020      -0.0005   -0.0000    0.0000   -0.0000   -0.0000   -0.0003    0.0001   -0.0002    0.0000    0.0059
       59 C4     *011      -0.0000    0.0000    0.0000    0.0000   -0.0000   -0.0000    0.0000   -0.0000    0.0000    0.0000
       60 C4     *002      -0.0000    0.0000   -0.0000   -0.0001   -0.0001   -0.0013   -0.0000   -0.0001   -0.0000   -0.0045
       61 C5     1s        -0.0000   -0.0000    0.0000    0.0000    0.0000    0.0031    0.0112    0.9954   -0.0175   -0.0168
       62 C5     2s        -0.0000   -0.0000    0.0001    0.0001    0.0004    0.0000    0.0001    0.0282   -0.0003    0.0289
       63 C5     *s        -0.0002    0.0006   -0.0021   -0.0016   -0.0072    0.0057    0.0032   -0.0157    0.0041    0.0595
       64 C5     2px       -0.0000    0.0000    0.0000   -0.0000   -0.0000   -0.0002    0.0000    0.0004    0.0000    0.0163
       65 C5     *px       -0.0001    0.0003   -0.0016   -0.0011   -0.0039    0.0048   -0.0017   -0.0019   -0.0017    0.0247
       66 C5     2py       -0.0000    0.0000    0.0000   -0.0001    0.0000    0.0000    0.0002   -0.0002    0.0000   -0.0009
       67 C5     *py        0.0001   -0.0002    0.0006    0.0013    0.0022    0.0009   -0.0030    0.0009   -0.0000   -0.0171
       68 C5     2pz        0.0000    0.0000    0.0000   -0.0000    0.0000    0.0000    0.0000   -0.0000   -0.0000   -0.0000
       69 C5     *pz       -0.0000   -0.0000   -0.0000    0.0000   -0.0000   -0.0000   -0.0000   -0.0000   -0.0000   -0.0000
       70 C5     *200       0.0000    0.0000    0.0000   -0.0000   -0.0001   -0.0002   -0.0002   -0.0010   -0.0003    0.0014
       71 C5     *110      -0.0000   -0.0000    0.0000    0.0000    0.0001   -0.0001   -0.0000   -0.0001    0.0002    0.0014
       72 C5     *101       0.0000   -0.0000    0.0000    0.0000   -0.0000    0.0000   -0.0000   -0.0000    0.0000    0.0000
       73 C5     *020      -0.0000   -0.0000   -0.0000    0.0000   -0.0000   -0.0002   -0.0001   -0.0008   -0.0001    0.0016
       74 C5     *011       0.0000   -0.0000    0.0000    0.0000   -0.0000    0.0000   -0.0000   -0.0000   -0.0000    0.0000
       75 C5     *002      -0.0000   -0.0000    0.0000    0.0000    0.0000   -0.0001   -0.0000   -0.0013   -0.0001   -0.0010
       76 C6     1s         0.0000    0.0000    0.0000    0.0000   -0.0002   -0.0000    0.9956   -0.0119    0.0002   -0.0235
       77 C6     2s         0.0000    0.0000    0.0002   -0.0000   -0.0006   -0.0003    0.0271   -0.0006   -0.0001    0.0496
       78 C6     *s         0.0000   -0.0004    0.0028    0.0018    0.0044   -0.0006   -0.0091    0.0065   -0.0012   -0.0275
       79 C6     2px       -0.0000    0.0000    0.0002    0.0000   -0.0002   -0.0000    0.0010    0.0000    0.0001    0.0287
       80 C6     *px       -0.0000   -0.0002    0.0018    0.0004    0.0027   -0.0008    0.0020    0.0012   -0.0007   -0.0274
       81 C6     2py        0.0000   -0.0000   -0.0001    0.0000   -0.0000   -0.0001   -0.0006   -0.0002   -0.0000   -0.0025
       82 C6     *py       -0.0000   -0.0003    0.0006    0.0006    0.0037    0.0007   -0.0025    0.0024   -0.0001   -0.0260
       83 C6     2pz        0.0000    0.0000    0.0000    0.0000    0.0000    0.0000   -0.0000    0.0000    0.0000    0.0000
       84 C6     *pz        0.0000    0.0000    0.0000   -0.0000    0.0000    0.0000    0.0000   -0.0000    0.0000    0.0000
       85 C6     *200      -0.0000   -0.0000   -0.0001    0.0000    0.0001    0.0000   -0.0007   -0.0002   -0.0000    0.0022
       86 C6     *110      -0.0000   -0.0000    0.0001   -0.0000   -0.0000    0.0000   -0.0002   -0.0000    0.0001   -0.0024
       87 C6     *101      -0.0000   -0.0000    0.0000   -0.0000   -0.0000   -0.0000   -0.0000   -0.0000    0.0000    0.0000
       88 C6     *020       0.0000    0.0000   -0.0000    0.0000    0.0000    0.0001   -0.0007   -0.0003    0.0000   -0.0004
       89 C6     *011       0.0000    0.0000   -0.0000   -0.0000   -0.0000    0.0000    0.0000    0.0000    0.0000   -0.0000
       90 C6     *002       0.0000    0.0000   -0.0001    0.0000   -0.0001   -0.0001   -0.0014   -0.0000   -0.0000   -0.0011
       91 O7     1s        -0.0000    0.9947   -0.0000   -0.0000   -0.0002   -0.0001   -0.0001   -0.0000    0.0000   -0.1405
       92 O7     2s         0.0001    0.0210   -0.0002   -0.0002    0.0010   -0.0005   -0.0005   -0.0002    0.0000    0.3057
       93 O7     *s        -0.0003    0.0047    0.0011    0.0011   -0.0056    0.0037    0.0036    0.0011   -0.0001    0.2807
       94 O7     2px       -0.0000   -0.0015    0.0000    0.0000   -0.0003   -0.0000    0.0000    0.0000    0.0000   -0.0977
       95 O7     *px        0.0001   -0.0001   -0.0000   -0.0003    0.0021   -0.0006   -0.0008   -0.0002   -0.0000   -0.0417
       96 O7     2py        0.0000    0.0008   -0.0000   -0.0000    0.0002   -0.0000   -0.0000   -0.0000    0.0000    0.0500
       97 O7     *py       -0.0001    0.0000    0.0004   -0.0002   -0.0011    0.0008   -0.0000    0.0001   -0.0000    0.0211
       98 O7     2pz        0.0000    0.0000   -0.0000    0.0000   -0.0000    0.0000   -0.0000   -0.0000   -0.0000   -0.0000
       99 O7     *pz        0.0000   -0.0000   -0.0000    0.0000   -0.0000    0.0000    0.0000   -0.0000   -0.0000   -0.0000
      100 O7     *200       0.0000   -0.0021   -0.0001   -0.0000    0.0002   -0.0002   -0.0002   -0.0001    0.0000    0.0065
      101 O7     *110       0.0000   -0.0002   -0.0000    0.0001    0.0000   -0.0001    0.0000   -0.0000   -0.0000   -0.0085
      102 O7     *101      -0.0000    0.0000    0.0000   -0.0000   -0.0000   -0.0000   -0.0000   -0.0000    0.0000    0.0000
      103 O7     *020       0.0000   -0.0022   -0.0000   -0.0001    0.0002   -0.0002   -0.0002   -0.0001    0.0000    0.0005
      104 O7     *011       0.0000   -0.0000   -0.0000    0.0000    0.0000    0.0000    0.0000    0.0000   -0.0000   -0.0000
      105 O7     *002       0.0000   -0.0024   -0.0001   -0.0001    0.0003   -0.0002   -0.0002   -0.0001   -0.0000   -0.0015
      106 O8     1s         0.9947    0.0000   -0.0000   -0.0000   -0.0001   -0.0002   -0.0000    0.0000   -0.0000   -0.0599
      107 O8     2s         0.0210    0.0001   -0.0001   -0.0002   -0.0006    0.0012   -0.0001   -0.0000   -0.0001    0.1327
      108 O8     *s         0.0048   -0.0004    0.0004    0.0014    0.0041   -0.0070    0.0008   -0.0003    0.0002    0.1077
      109 O8     2px        0.0000    0.0000   -0.0000    0.0000   -0.0000    0.0000   -0.0000    0.0000    0.0000    0.0022
      110 O8     *px        0.0000   -0.0000    0.0001   -0.0003    0.0002   -0.0008    0.0001    0.0002    0.0002    0.0031
      111 O8     2py       -0.0016   -0.0000    0.0000    0.0000    0.0000   -0.0003    0.0000   -0.0000    0.0000   -0.0472
      112 O8     *py       -0.0001    0.0001   -0.0001   -0.0003   -0.0008    0.0026   -0.0001    0.0001   -0.0001   -0.0180
      113 O8     2pz       -0.0000    0.0000    0.0000    0.0000    0.0000    0.0000   -0.0000   -0.0000    0.0000    0.0000
      114 O8     *pz        0.0000    0.0000   -0.0000    0.0000    0.0000   -0.0000    0.0000   -0.0000   -0.0000    0.0000
      115 O8     *200      -0.0023    0.0000   -0.0000   -0.0001   -0.0002    0.0003   -0.0000    0.0001   -0.0000   -0.0003
      116 O8     *110       0.0000    0.0000   -0.0000    0.0001   -0.0000    0.0002    0.0000   -0.0000   -0.0000   -0.0008
      117 O8     *101      -0.0000    0.0000    0.0000   -0.0000   -0.0000    0.0000   -0.0000    0.0000   -0.0000    0.0000
      118 O8     *020      -0.0021    0.0000   -0.0000   -0.0001   -0.0002    0.0002   -0.0001    0.0001   -0.0000    0.0041
      119 O8     *011      -0.0000    0.0000    0.0000   -0.0000   -0.0000   -0.0000   -0.0000    0.0000    0.0000   -0.0000
[...]
      105 O7     *002       0.0035   -0.0000   -0.0066    0.0075   -0.0325   -0.0265   -0.0096   -0.0405    0.0029    0.0074
      106 O8     1s         0.0130    0.0000   -0.0008   -0.0107   -0.0520    0.0813    0.0673    0.0231   -0.0184    0.0352
      107 O8     2s        -0.0363   -0.0000   -0.0025    0.0246    0.0541    0.0068   -0.0116    0.0169   -0.0401   -0.0054
      108 O8     *s        -0.1368   -0.0000   -0.0133    0.1045    0.9241   -2.1020   -1.7174   -0.5798    0.9401   -0.8010
      109 O8     2px        0.0325    0.0000    0.0689   -0.0091    0.0625   -0.0144   -0.0151   -0.0491   -0.0517    0.1492
      110 O8     *px        0.0167   -0.0000    0.0667   -0.0617    0.1244   -0.0579   -0.1071   -0.2167   -0.2339    0.2918
      111 O8     2py        0.0235    0.0000   -0.0062   -0.0661   -0.1175    0.0336    0.0463    0.0204    0.0355    0.0186
      112 O8     *py        0.0447    0.0000   -0.0229   -0.1029   -0.4667    0.7117    0.5936    0.3531   -0.1585    0.4376
      113 O8     2pz       -0.0000   -0.1313    0.0000   -0.0000   -0.0000   -0.0000   -0.0000    0.0000    0.0000    0.0000
      114 O8     *pz       -0.0000   -0.2807    0.0000   -0.0000   -0.0000   -0.0000   -0.0000    0.0000    0.0000    0.0000
      115 O8     *200       0.0032    0.0000   -0.0021    0.0018   -0.0110    0.0394    0.0246    0.0066   -0.0120    0.0120
      116 O8     *110       0.0019    0.0000    0.0022   -0.0065    0.0069    0.0052    0.0065   -0.0018    0.0154    0.0257
      117 O8     *101      -0.0000    0.0060   -0.0000    0.0000    0.0000   -0.0000    0.0000    0.0000    0.0000   -0.0000
      118 O8     *020      -0.0023   -0.0000    0.0001    0.0001    0.0028   -0.0004    0.0016   -0.0059   -0.0066   -0.0090
      119 O8     *011       0.0000   -0.0116    0.0000   -0.0000   -0.0000    0.0000    0.0000    0.0000   -0.0000    0.0000
      120 O8     *002      -0.0036    0.0000   -0.0001   -0.0013   -0.0187    0.0375    0.0280    0.0251   -0.0090    0.0234
      121 H9     1s         0.0244    0.0000    0.0647   -0.0183    0.0574    0.0564    0.0095   -0.0300    0.1171   -0.0879
      122 H9     *s         0.3854    0.0000    0.5163   -0.5841   -0.0002   -0.1957    0.0632   -0.0591   -0.4261   -0.3066
      123 H9     *px        0.0041    0.0000    0.0194    0.0064   -0.0055   -0.0144    0.0228   -0.0146    0.0238    0.0071
      124 H9     *py        0.0017   -0.0000   -0.0026    0.0008   -0.0089   -0.0127   -0.0003   -0.0012   -0.0163    0.0076
      125 H9     *pz       -0.0000   -0.0080    0.0000   -0.0000    0.0000    0.0000    0.0000    0.0000   -0.0000   -0.0000
      126 H10    1s        -0.0151    0.0000    0.0247   -0.0104    0.0819    0.0076   -0.1017    0.0268   -0.0164    0.0120
      127 H10    *s         0.2718    0.0000   -0.0889   -0.0506    0.2555   -0.1709    0.5289   -0.2813   -0.3342   -0.0532
      128 H10    *px       -0.0051   -0.0000    0.0068    0.0016    0.0068   -0.0150   -0.0207    0.0087   -0.0074   -0.0021
      129 H10    *py        0.0024    0.0000   -0.0037   -0.0057    0.0116    0.0260   -0.0019   -0.0021    0.0124    0.0027
      130 H10    *pz       -0.0000   -0.0118    0.0000   -0.0000    0.0000    0.0000    0.0000    0.0000    0.0000    0.0000
      131 C11    1s         0.0313   -0.0000   -0.0561   -0.0282    0.0234   -0.0408    0.0083    0.0070    0.0041   -0.0015
      132 C11    2s        -0.0288   -0.0000   -0.0407    0.0419   -0.0037   -0.0737    0.0031    0.1087    0.0721    0.0144
      133 C11    *s        -0.4618    0.0000    1.7705    0.3992   -0.5295    1.8421   -0.0765   -1.0294   -1.3733   -0.4570
      134 C11    2px        0.1146   -0.0000    0.0978    0.1586    0.0264   -0.0972   -0.1142    0.1481    0.0355   -0.0741
      135 C11    *px        0.4784    0.0000    1.3400    0.9688   -0.3049    0.9586   -0.7386   -0.1318   -1.2578   -0.2356
      136 C11    2py        0.2295    0.0000   -0.0089   -0.1246   -0.0364   -0.0143   -0.0660   -0.0148    0.0163    0.0259
      137 C11    *py        1.0960    0.0000   -0.8143   -0.6522   -0.1256   -0.6595   -0.2266    0.9275   -0.2211    0.3672
      138 C11    2pz       -0.0000    0.2371   -0.0000    0.0000    0.0000   -0.0000   -0.0000   -0.0000   -0.0000    0.0000
      139 C11    *pz       -0.0000    1.1625   -0.0000    0.0000    0.0000   -0.0000   -0.0000   -0.0000    0.0000    0.0000
      140 C11    *200       0.0090   -0.0000   -0.0131    0.0037    0.0058    0.0041    0.0186   -0.0014   -0.0006   -0.0070
      141 C11    *110       0.0081   -0.0000    0.0039    0.0257    0.0014    0.0197    0.0115   -0.0100   -0.0055   -0.0018
      142 C11    *101       0.0000   -0.0205    0.0000   -0.0000   -0.0000    0.0000    0.0000    0.0000   -0.0000    0.0000
      143 C11    *020      -0.0002    0.0000    0.0083   -0.0067   -0.0049   -0.0026   -0.0089    0.0031   -0.0050    0.0081
      144 C11    *011       0.0000    0.0101   -0.0000    0.0000    0.0000   -0.0000   -0.0000   -0.0000   -0.0000    0.0000
      145 C11    *002      -0.0047   -0.0000    0.0015    0.0048    0.0006   -0.0060   -0.0080    0.0040    0.0023   -0.0030
      146 H12    1s        -0.0334    0.0000    0.0457    0.0128    0.0389   -0.0097    0.0499   -0.0256    0.0999   -0.1668
      147 H12    *s        -1.1392   -0.0000   -0.7746   -0.2692   -0.3889   -0.3329    0.5389   -0.2135    0.6524    0.9892
      148 H12    *px       -0.0022   -0.0000   -0.0085    0.0061   -0.0048   -0.0004   -0.0001    0.0002   -0.0069    0.0100
      149 H12    *py        0.0029    0.0000    0.0035   -0.0125   -0.0057   -0.0021   -0.0052    0.0032    0.0076    0.0147
      150 H12    *pz        0.0000    0.0114   -0.0000    0.0000    0.0000    0.0000   -0.0000   -0.0000   -0.0000    0.0000
      151 H13    1s         0.0740    0.0000    0.0081    0.0841   -0.0038    0.0901    0.0487   -0.0246   -0.0637   -0.0143
      152 H13    *s         1.7372    0.0000   -0.0044    0.2976   -0.0311   -0.2738   -0.6694    0.7649   -0.5503   -0.0636
      153 H13    *px       -0.0002    0.0000    0.0074   -0.0030   -0.0057   -0.0038   -0.0114    0.0044   -0.0016    0.0099
      154 H13    *py        0.0058   -0.0000   -0.0092    0.0024    0.0026    0.0017    0.0082    0.0035    0.0010   -0.0039
      155 H13    *pz       -0.0000    0.0076   -0.0000    0.0000    0.0000   -0.0000   -0.0000   -0.0000   -0.0000   -0.0000
      156 H14    1s        -0.0417    0.0110    0.0504    0.0046   -0.0115   -0.0034   -0.0640   -0.0212   -0.0031    0.0066
      157 H14    *s        -0.6321   -1.1374    0.0598    0.3554    0.2280   -0.0414    0.0691   -0.2080    0.1388   -0.1648
      158 H14    *px        0.0023   -0.0061    0.0024    0.0090    0.0000    0.0052    0.0036    0.0002    0.0004    0.0003
      159 H14    *py        0.0058    0.0030    0.0027   -0.0059   -0.0019    0.0003   -0.0020   -0.0008   -0.0060    0.0026
      160 H14    *pz        0.0004    0.0042   -0.0017    0.0018    0.0022   -0.0029   -0.0012    0.0002   -0.0017   -0.0040
      161 H15    1s        -0.0417   -0.0110    0.0504    0.0046   -0.0115   -0.0034   -0.0640   -0.0212   -0.0031    0.0066
      162 H15    *s        -0.6321    1.1374    0.0597    0.3554    0.2280   -0.0414    0.0691   -0.2080    0.1388   -0.1648
      163 H15    *px        0.0023    0.0061    0.0024    0.0090    0.0000    0.0052    0.0036    0.0002    0.0004    0.0003
      164 H15    *py        0.0058   -0.0030    0.0027   -0.0059   -0.0019    0.0003   -0.0020   -0.0008   -0.0060    0.0026
      165 H15    *pz       -0.0004    0.0042    0.0017   -0.0018   -0.0022    0.0029    0.0012   -0.0002    0.0017    0.0040
--


++    Molecular charges:
      ------------------

      Mulliken charges per centre and basis function type
      ---------------------------------------------------

                N1      C2      N3      C4      C5      C6      O7      O8      H9      H10     C11     H12   
      1s       1.9955  1.9968  1.9956  1.9970  1.9966  1.9966  1.9955  1.9955  0.5040  0.4993  1.9967  0.5353
      2s       0.7349  0.6961  0.7395  0.6978  0.6531  0.6851  0.8965  0.9000  0.0000  0.0000  0.6376  0.0000
      2px      0.7837  0.7301  0.7976  0.6917  0.7044  0.6694  0.9300  1.1168  0.0000  0.0000  0.6586  0.0000
      2pz      0.9747  0.4486  0.9591  0.4292  0.5984  0.5043  0.8839  0.8399  0.0000  0.0000  0.7027  0.0000
      2py      0.7894  0.6828  0.7885  0.7456  0.7371  0.7836  1.0536  0.9013  0.0000  0.0000  0.6959  0.0000
      *s       0.8646  0.0850  0.8882  0.2074  0.5074  0.3510  0.9688  0.9706  0.1264  0.1258  0.6084  0.2619
      *px      0.3734 -0.0430  0.4649  0.0520  0.2822  0.1367  0.5137  0.7218  0.0028  0.0138  0.2457  0.0072
      *pz      0.7568  0.2226  0.7649  0.2452  0.5038  0.3962  0.6573  0.6358  0.0079  0.0071  0.3856  0.0022
      *py      0.4791  0.0125  0.4032 -0.0206  0.1770  0.2099  0.6642  0.4623  0.0180  0.0071  0.3384  0.0045
      *200     0.0203  0.0470  0.0129  0.0146  0.0229  0.0180  0.0122  0.0024  0.0000  0.0000  0.0083  0.0000
      *110     0.0118  0.0455  0.0108  0.0606  0.0166  0.0229  0.0095  0.0071  0.0000  0.0000  0.0130  0.0000
      *101     0.0051  0.0320  0.0020  0.0101  0.0038  0.0086  0.0104  0.0000  0.0000  0.0000  0.0025  0.0000
      *020     0.0119  0.0347  0.0174  0.0385  0.0222  0.0218  0.0044  0.0159  0.0000  0.0000  0.0008  0.0000
      *011     0.0018  0.0209  0.0033  0.0302  0.0087  0.0137  0.0027  0.0135  0.0000  0.0000  0.0132  0.0000
      *002    -0.0165 -0.0289 -0.0164 -0.0256 -0.0169 -0.0209 -0.0003 -0.0005  0.0000  0.0000  0.0044  0.0000
      Total    7.7866  4.9825  7.8313  5.1736  6.2174  5.7969  8.6024  8.5824  0.6592  0.6531  6.3119  0.8110

      N-E     -0.7866  1.0175 -0.8313  0.8264 -0.2174  0.2031 -0.6024 -0.5824  0.3408  0.3469 -0.3119  0.1890

                H13     H14     H15   
      1s       0.5344  0.5290  0.5290
      2s       0.0000  0.0000  0.0000
      2px      0.0000  0.0000  0.0000
      2pz      0.0000  0.0000  0.0000
      2py      0.0000  0.0000  0.0000
      *s       0.3397  0.3103  0.3103
      *px      0.0062  0.0018  0.0018
      *pz      0.0020  0.0067  0.0067
      *py      0.0047  0.0046  0.0046
      *200     0.0000  0.0000  0.0000
      *110     0.0000  0.0000  0.0000
      *101     0.0000  0.0000  0.0000
      *020     0.0000  0.0000  0.0000
      *011     0.0000  0.0000  0.0000
      *002     0.0000  0.0000  0.0000
      Total    0.8870  0.8523  0.8523

      N-E      0.1130  0.1477  0.1477

      Total electronic charge=   66.000000

      Total            charge=   -0.000000

      Mulliken Bond Order analysis
      ----------------------------
      Only bonds with order larger than 0.500 are printed

        Atom A        Atom B        Bond Order
        N1            C2              0.976
        N1            C6              0.937
        N1            H9              0.876
        C2            N3              0.977
        C2            O7              1.844
        N3            C4              0.909
        N3            H10             0.865
        C4            C5              1.038
        C4            O8              1.830
        C5            C6              1.789
        C5            C11             0.986
        C6            H12             0.951
        C11           H13             0.976
        C11           H14             0.961
        C11           H15             0.961

--


      Expectation values of various operators

++    Molecular properties:
      ---------------------



       0-th cartesian moments: origin at (  0.00000000,  0.00000000,  0.00000000)
      ----------------------------------------------------------------------------
 Total electronic           -66.00000000
 Total nuclear               66.00000000
 Total                       -0.00000000


       1-st cartesian moments: origin at (  0.00000000,  0.00000000,  0.00000000)
      ----------------------------------------------------------------------------
 Component                             X               Y               Z
 Total electronic            -1.29975189     -1.06474943      0.00000496
 Total nuclear               -0.08962958     -0.08870090     -0.00000588
 Total                       -1.38938147     -1.15345034     -0.00000092
      ----------------------------------------------------------------------------
      Total                  -3.53145546     -2.93177832     -0.00000233   Debye


       2-nd cartesian moments: origin at (  0.12123359, -0.00369730, -0.00000010)
      ----------------------------------------------------------------------------
 Component                            XX              XY              XZ              YY              YZ              ZZ
 Total electronic          -593.77865433    188.84481534     -0.00000217   -481.26820721     -0.00001688    -44.09098520
 Total nuclear              553.71937715   -182.15895375     -0.00000828    439.87484442      0.00002815      5.43832103
 Total                      -40.05927718      6.68586159     -0.00001046    -41.39336279      0.00001128    -38.65266416



      Cartesian  2-pole moment: origin at (  0.12123359, -0.00369730, -0.00000010)
      ----------------------------------------------------------------------------
 Component                            XX              XY              XZ              YY              YZ              ZZ
 Total electronic          -331.09905813    283.26722300     -0.00000326   -162.33338745     -0.00002531    493.43244558
 Total nuclear              331.06279442   -273.23843062     -0.00001242    160.29599533      0.00004223   -491.35878975
 Total                       -0.03626370     10.02879238     -0.00001568     -2.03739212      0.00001691      2.07365582

--


++ Statistics and timing
   ---------------------

  - - - - - - - - - - - - - - - - - - - - - - - - - - - - - - - - - -
     Part of the program                              CPU    fraction
  - - - - - - - - - - - - - - - - - - - - - - - - - - - - - - - - - -
  1) Input processing                         :      0.03      0.01
  2) Wave function optimization               :      3.45      0.60
       Line Search Iterations    (QNR steps)  :      0.00      0.00
    a ) calculation of the density            :      0.00      0.00
    b ) contraction with integrals            :      3.26      0.57
    c ) acceleration of convergence           :      0.00      0.00
          recursive BFGS         (QNR steps)  :      0.00      0.00
    d ) solution to Roothaan-Hall equations   :      0.03      0.01
    d') rotate MOs C with U      (QNR steps)  :      0.00      0.00
          U=exp(kap)                          :      0.00      0.00
    e') transf. Fck Mat. with C  (QNR steps)  :      0.00      0.00
    f ) other calculations                    :      0.00      0.00
  3) Final processing (generation of outputs) :      0.13      0.02

     T O T A L                                :      5.72
  - - - - - - - - - - - - - - - - - - - - - - - - - - - - - - - - - -
--


      Input file to MOLDEN was generated!

++ I/O STATISTICS
 
  I. General I/O information
  - - - - - - - - - - - - - - - - - - - - - - - - - - - - - - - - - - - - - - - - - - -
  Unit  Name          Flsize      Write/Read            MBytes           Write/Read
                      (MBytes)       Calls              In/Out           Time, sec.
  - - - - - - - - - - - - - - - - - - - - - - - - - - - - - - - - - - - - - - - - - - -
   1  RUNFILE           5.07 .     399/    6486 .      5.2/     46.9 .       0/       0
   2  NQGRID            0.00 .       0/       0 .      0.0/      0.0 .       0/       0
   3  ONEINT            4.50 .       2/     293 .      1.5/    151.4 .       0/       0
   4  AVEC00            0.00 .       0/       0 .      0.0/      0.0 .       0/       0
   5  ZMAT00            0.00 .       0/       0 .      0.0/      0.0 .       0/       0
   6  AMAT00            1.98 .       0/       0 .      0.0/      0.0 .       0/       0
   7  QMAT00            0.00 .       0/       0 .      0.0/      0.0 .       0/       0
   8  QVEC00            3.96 .       0/       0 .      0.0/      0.0 .       0/       0
   9  RVEC00           74.59 .       0/       0 .      0.0/      0.0 .       0/       0
  10  CHRED             0.22 .       0/      14 .      0.0/      0.8 .       0/       0
  11  CHVEC1           74.73 .       0/       1 .      0.0/     74.6 .       0/       0
  12  CHORST            0.03 .       0/      12 .      0.0/      0.0 .       0/       0
  13  CHOMAP            0.01 .       0/       0 .      0.0/      0.0 .       0/       0
  14  CHODIAG           0.10 .       0/       5 .      0.0/      0.5 .       0/       0
  15  DNSMAT            1.25 .       0/       0 .      0.0/      0.0 .       0/       0
  16  DVXCDR            1.25 .       0/       0 .      0.0/      0.0 .       0/       0
  17  TWOHAM            1.25 .       0/       0 .      0.0/      0.0 .       0/       0
  18  GRADIENT          0.00 .       0/       0 .      0.0/      0.0 .       0/       0
  19  SODGRAD           0.00 .       0/       0 .      0.0/      0.0 .       0/       0
  20  SOXVEC            0.00 .       0/       0 .      0.0/      0.0 .       0/       0
  21  SODELTA           0.00 .       0/       0 .      0.0/      0.0 .       0/       0
  22  SOYVEC            0.00 .       0/       0 .      0.0/      0.0 .       0/       0
  - - - - - - - - - - - - - - - - - - - - - - - - - - - - - - - - - - - - - - - - - - -
   *  TOTAL           168.95 .     401/    6811 .      6.7/    274.1 .       0/       0
  - - - - - - - - - - - - - - - - - - - - - - - - - - - - - - - - - - - - - - - - - - -
 
  II. I/O Access Patterns
  - - - - - - - - - - - - - - - - - - - -
  Unit  Name               % of random
                         Write/Read calls
  - - - - - - - - - - - - - - - - - - - -
   1  RUNFILE             28.6/  11.9
   2  NQGRID               0.0/   0.0
   3  ONEINT             100.0/  22.5
   4  AVEC00               0.0/   0.0
   5  ZMAT00               0.0/   0.0
   6  AMAT00               0.0/   0.0
   7  QMAT00               0.0/   0.0
   8  QVEC00               0.0/   0.0
   9  RVEC00               0.0/   0.0
  10  CHRED                0.0/  35.7
  11  CHVEC1               0.0/   0.0
  12  CHORST               0.0/   0.0
  13  CHOMAP               0.0/   0.0
  14  CHODIAG              0.0/   0.0
  15  DNSMAT               0.0/   0.0
  16  DVXCDR               0.0/   0.0
  17  TWOHAM               0.0/   0.0
  18  GRADIENT             0.0/   0.0
  19  SODGRAD              0.0/   0.0
  20  SOXVEC               0.0/   0.0
  21  SODELTA              0.0/   0.0
  22  SOYVEC               0.0/   0.0
  - - - - - - - - - - - - - - - - - - - -
--
 ###############################################################################
 ###############################################################################
 ###                                                                         ###
 ###                                                                         ###
 ###    WARNING: RunFile label nBas                                          ###
 ###    was used       72 times                                              ###
 ###                                                                         ###
 ###                                                                         ###
 ###############################################################################
 ###############################################################################
--- Stop Module: last_energy at Wed Mar 29 16:44:05 2023 /rc=_RC_ALL_IS_WELL_ ---
*** files: scf.GssOrb scf.guessorb.molden scf.scf.molden scf.ScfOrb xmldump
    saved to directory /home/marlenne/thymine/Thymine/MOLCAS/2.Thymine_opt_fabrizio
--- Module last_energy spent 6 seconds ---

>>> END DO
 Happy landing!
    Timing: Wall=296.25 User=275.11 System=19.07
