[Molden Format]
[N_Atoms]
                   15
[Atoms] (AU)
N1          1      7           0.30238737     -3.12354417      0.00000039
C2          2      6           2.54503364     -1.83953751     -0.00000503
N3          3      7           2.25757492      0.73366310      0.00000001
C4          4      6           0.01803449      2.09417070      0.00000377
C5          5      6          -2.29254918      0.54769333     -0.00000097
C6          6      6          -2.02112989     -1.95038898      0.00000014
O7          7      8           4.55581689     -2.86615019      0.00000117
O8          8      8           0.04953837      4.35250158     -0.00000063
H9          9      1           0.44049802     -4.99617207      0.00000063
H10        10      1           3.85220859      1.73765342      0.00000057
C11        11      6          -4.79184069      1.89369326     -0.00000033
H12        12      1          -3.61028566     -3.21199350      0.00000136
H13        13      1          -6.34120672      0.55330626     -0.00000052
H14        14      1          -4.96935611      3.09653824      1.64898744
H15        15      1          -4.96935606      3.09653836     -1.64898801
[Charge] (Mulliken)
 -0.78658312033661559     
   1.0175029670324340     
 -0.83133125816854303     
  0.82637276264889170     
 -0.21740939882953736     
  0.20306713047835068     
 -0.60238855765070198     
 -0.58236372415023929     
  0.34084609319851833     
  0.34689395825518532     
 -0.31190721371592467     
  0.18896001018391062     
  0.11303843086092946     
  0.14765093477700553     
  0.14765098541357458     
[GTO] (AU)
   1
   s   6
  0.417351146E+04  0.183477216E-02
  0.627457911E+03  0.139946270E-01
  0.142902093E+03  0.685865518E-01
  0.402343293E+02  0.232240873E+00
  0.128202129E+02  0.469069948E+00
  0.439043701E+01  0.360455199E+00
   s   3
  0.116263619E+02 -0.114961182E+00
  0.271627981E+01 -0.169117479E+00
  0.772218397E+00  0.114585195E+01
   s   1
  0.212031497E+00  0.100000000E+01
   p   3
  0.116263619E+02  0.675797439E-01
  0.271627981E+01  0.323907296E+00
  0.772218397E+00  0.740895140E+00
   p   1
  0.212031497E+00  0.100000000E+01
   d   1
  0.800000000E+00  0.100000000E+01
 
   2
   s   6
  0.304752488E+04  0.183473713E-02
  0.457369518E+03  0.140373228E-01
  0.103948685E+03  0.688426223E-01
  0.292101553E+02  0.232184443E+00
  0.928666296E+01  0.467941348E+00
  0.316392696E+01  0.362311985E+00
   s   3
  0.786827235E+01 -0.119332420E+00
  0.188128854E+01 -0.160854152E+00
  0.544249258E+00  0.114345644E+01
   s   1
  0.168714478E+00  0.100000000E+01
   p   3
  0.786827235E+01  0.689990666E-01
  0.188128854E+01  0.316423961E+00
  0.544249258E+00  0.744308291E+00
   p   1
  0.168714478E+00  0.100000000E+01
   d   1
  0.800000000E+00  0.100000000E+01
 
   3
   s   6
  0.417351146E+04  0.183477216E-02
  0.627457911E+03  0.139946270E-01
  0.142902093E+03  0.685865518E-01
  0.402343293E+02  0.232240873E+00
  0.128202129E+02  0.469069948E+00
  0.439043701E+01  0.360455199E+00
   s   3
  0.116263619E+02 -0.114961182E+00
  0.271627981E+01 -0.169117479E+00
  0.772218397E+00  0.114585195E+01
   s   1
  0.212031497E+00  0.100000000E+01
   p   3
  0.116263619E+02  0.675797439E-01
  0.271627981E+01  0.323907296E+00
  0.772218397E+00  0.740895140E+00
   p   1
  0.212031497E+00  0.100000000E+01
   d   1
  0.800000000E+00  0.100000000E+01
 
   4
   s   6
  0.304752488E+04  0.183473713E-02
  0.457369518E+03  0.140373228E-01
  0.103948685E+03  0.688426223E-01
  0.292101553E+02  0.232184443E+00
  0.928666296E+01  0.467941348E+00
  0.316392696E+01  0.362311985E+00
   s   3
  0.786827235E+01 -0.119332420E+00
  0.188128854E+01 -0.160854152E+00
  0.544249258E+00  0.114345644E+01
   s   1
  0.168714478E+00  0.100000000E+01
   p   3
  0.786827235E+01  0.689990666E-01
  0.188128854E+01  0.316423961E+00
  0.544249258E+00  0.744308291E+00
   p   1
  0.168714478E+00  0.100000000E+01
   d   1
  0.800000000E+00  0.100000000E+01
 
   5
   s   6
  0.304752488E+04  0.183473713E-02
  0.457369518E+03  0.140373228E-01
  0.103948685E+03  0.688426223E-01
  0.292101553E+02  0.232184443E+00
  0.928666296E+01  0.467941348E+00
  0.316392696E+01  0.362311985E+00
   s   3
  0.786827235E+01 -0.119332420E+00
  0.188128854E+01 -0.160854152E+00
  0.544249258E+00  0.114345644E+01
   s   1
  0.168714478E+00  0.100000000E+01
   p   3
  0.786827235E+01  0.689990666E-01
  0.188128854E+01  0.316423961E+00
  0.544249258E+00  0.744308291E+00
   p   1
  0.168714478E+00  0.100000000E+01
   d   1
  0.800000000E+00  0.100000000E+01
 
   6
   s   6
  0.304752488E+04  0.183473713E-02
  0.457369518E+03  0.140373228E-01
  0.103948685E+03  0.688426223E-01
  0.292101553E+02  0.232184443E+00
  0.928666296E+01  0.467941348E+00
  0.316392696E+01  0.362311985E+00
   s   3
  0.786827235E+01 -0.119332420E+00
  0.188128854E+01 -0.160854152E+00
  0.544249258E+00  0.114345644E+01
   s   1
  0.168714478E+00  0.100000000E+01
   p   3
  0.786827235E+01  0.689990666E-01
  0.188128854E+01  0.316423961E+00
  0.544249258E+00  0.744308291E+00
   p   1
  0.168714478E+00  0.100000000E+01
   d   1
  0.800000000E+00  0.100000000E+01
 
   7
   s   6
  0.548467166E+04  0.183107443E-02
  0.825234946E+03  0.139501722E-01
  0.188046958E+03  0.684450781E-01
  0.529645000E+02  0.232714336E+00
  0.168975704E+02  0.470192898E+00
  0.579963534E+01  0.358520853E+00
   s   3
  0.155396162E+02 -0.110777550E+00
  0.359993359E+01 -0.148026263E+00
  0.101376175E+01  0.113076702E+01
   s   1
  0.270005823E+00  0.100000000E+01
   p   3
  0.155396162E+02  0.708742682E-01
  0.359993359E+01  0.339752839E+00
  0.101376175E+01  0.727158577E+00
   p   1
  0.270005823E+00  0.100000000E+01
   d   1
  0.800000000E+00  0.100000000E+01
 
   8
   s   6
  0.548467166E+04  0.183107443E-02
  0.825234946E+03  0.139501722E-01
  0.188046958E+03  0.684450781E-01
  0.529645000E+02  0.232714336E+00
  0.168975704E+02  0.470192898E+00
  0.579963534E+01  0.358520853E+00
   s   3
  0.155396162E+02 -0.110777550E+00
  0.359993359E+01 -0.148026263E+00
  0.101376175E+01  0.113076702E+01
   s   1
  0.270005823E+00  0.100000000E+01
   p   3
  0.155396162E+02  0.708742682E-01
  0.359993359E+01  0.339752839E+00
  0.101376175E+01  0.727158577E+00
   p   1
  0.270005823E+00  0.100000000E+01
   d   1
  0.800000000E+00  0.100000000E+01
 
   9
   s   3
  0.187311370E+02  0.334946043E-01
  0.282539437E+01  0.234726954E+00
  0.640121692E+00  0.813757326E+00
   s   1
  0.161277759E+00  0.100000000E+01
   p   1
  0.110000000E+01  0.100000000E+01
 
  10
   s   3
  0.187311370E+02  0.334946043E-01
  0.282539437E+01  0.234726954E+00
  0.640121692E+00  0.813757326E+00
   s   1
  0.161277759E+00  0.100000000E+01
   p   1
  0.110000000E+01  0.100000000E+01
 
  11
   s   6
  0.304752488E+04  0.183473713E-02
  0.457369518E+03  0.140373228E-01
  0.103948685E+03  0.688426223E-01
  0.292101553E+02  0.232184443E+00
  0.928666296E+01  0.467941348E+00
  0.316392696E+01  0.362311985E+00
   s   3
  0.786827235E+01 -0.119332420E+00
  0.188128854E+01 -0.160854152E+00
  0.544249258E+00  0.114345644E+01
   s   1
  0.168714478E+00  0.100000000E+01
   p   3
  0.786827235E+01  0.689990666E-01
  0.188128854E+01  0.316423961E+00
  0.544249258E+00  0.744308291E+00
   p   1
  0.168714478E+00  0.100000000E+01
   d   1
  0.800000000E+00  0.100000000E+01
 
  12
   s   3
  0.187311370E+02  0.334946043E-01
  0.282539437E+01  0.234726954E+00
  0.640121692E+00  0.813757326E+00
   s   1
  0.161277759E+00  0.100000000E+01
   p   1
  0.110000000E+01  0.100000000E+01
 
  13
   s   3
  0.187311370E+02  0.334946043E-01
  0.282539437E+01  0.234726954E+00
  0.640121692E+00  0.813757326E+00
   s   1
  0.161277759E+00  0.100000000E+01
   p   1
  0.110000000E+01  0.100000000E+01
 
  14
   s   3
  0.187311370E+02  0.334946043E-01
  0.282539437E+01  0.234726954E+00
  0.640121692E+00  0.813757326E+00
   s   1
  0.161277759E+00  0.100000000E+01
   p   1
  0.110000000E+01  0.100000000E+01
 
  15
   s   3
  0.187311370E+02  0.334946043E-01
  0.282539437E+01  0.234726954E+00
  0.640121692E+00  0.813757326E+00
   s   1
  0.161277759E+00  0.100000000E+01
   p   1
  0.110000000E+01  0.100000000E+01
 
[MO]
Sym=     1a  
Ene=   -20.5450
Spin= Alpha
Occup=    2.00000
   1        -0.00000129
   2        -0.00000371
   3         0.00018826
   4         0.00000210
   5         0.00000582
   6         0.00000000
   7         0.00006375
   8         0.00004157
   9        -0.00000000
  10        -0.00002301
  11         0.00000789
  12         0.00000560
  13         0.00000425
  14         0.00000000
  15        -0.00000000
  16         0.00001126
  17         0.00005037
  18        -0.00000062
  19        -0.00000231
  20         0.00003321
  21         0.00000000
  22         0.00036758
  23        -0.00002544
  24        -0.00000000
  25        -0.00000130
  26         0.00004967
  27         0.00002031
  28         0.00001680
  29         0.00000000
  30         0.00000000
  31        -0.00001155
  32        -0.00005019
  33         0.00024598
  34         0.00004246
  35        -0.00003191
  36         0.00000000
  37        -0.00016934
  38         0.00018840
  39         0.00000000
  40         0.00007528
  41        -0.00010146
  42        -0.00006075
  43         0.00006202
  44        -0.00000000
  45        -0.00000000
  46        -0.00001112
  47         0.00041270
  48        -0.00068480
  49         0.00000378
  50        -0.00016254
  51         0.00000000
  52        -0.00026349
  53        -0.00079154
  54         0.00000000
  55        -0.00003667
  56        -0.00093864
  57        -0.00003176
  58        -0.00000336
  59         0.00000000
  60         0.00000000
  61        -0.00000168
  62        -0.00001025
  63        -0.00016085
  64        -0.00000250
  65        -0.00002373
  66         0.00000000
  67        -0.00015591
  68         0.00006832
  69        -0.00000000
  70         0.00007224
  71        -0.00007530
  72        -0.00001988
  73        -0.00003793
  74         0.00000000
  75        -0.00000000
  76         0.00000199
  77         0.00002782
  78         0.00003071
  79        -0.00000525
  80         0.00002104
  81         0.00000000
  82        -0.00000637
  83        -0.00001635
  84        -0.00000000
  85        -0.00001009
  86         0.00000680
  87         0.00000265
  88        -0.00004134
  89        -0.00000000
  90        -0.00000000
  91         0.00001356
  92         0.00005939
  93        -0.00036505
  94        -0.00000624
  95         0.00000330
  96        -0.00000000
  97         0.00006772
  98        -0.00005661
  99         0.00000000
 100         0.00003250
 101         0.00003462
 102         0.00003578
 103         0.00000300
 104        -0.00000000
 105         0.00000000
 106         0.99465304
 107         0.02103835
 108         0.00504073
 109         0.00000459
 110        -0.00167489
 111         0.00000000
 112         0.00002411
 113        -0.00015230
 114         0.00000000
 115        -0.00400272
 116        -0.00356198
 117        -0.00421238
 118         0.00000631
 119        -0.00000000
 120        -0.00000000
 121        -0.00000855
 122        -0.00000490
 123        -0.00000226
 124        -0.00000482
 125         0.00000000
 126        -0.00003840
 127        -0.00003436
 128         0.00003200
 129         0.00002527
 130         0.00000000
 131         0.00000340
 132         0.00001838
 133        -0.00007403
 134         0.00000378
 135         0.00002228
 136        -0.00000000
 137        -0.00013083
 138        -0.00004947
 139         0.00000000
 140        -0.00000159
 141        -0.00000196
 142         0.00000616
 143         0.00002132
 144         0.00000000
 145        -0.00000000
 146         0.00000972
 147        -0.00000637
 148         0.00001059
 149         0.00000684
 150        -0.00000000
 151        -0.00001386
 152        -0.00007442
 153        -0.00000526
 154        -0.00000793
 155        -0.00000000
 156         0.00002269
 157        -0.00001210
 158         0.00000842
 159         0.00000785
 160        -0.00000025
 161         0.00002269
 162        -0.00001210
 163         0.00000842
 164         0.00000785
 165         0.00000025
Sym=     2a  
Ene=   -20.5420
Spin= Alpha
Occup=    2.00000
   1        -0.00001304
   2        -0.00006256
   3         0.00035095
   4        -0.00003288
   5        -0.00001825
   6        -0.00000000
   7         0.00008632
   8         0.00015229
   9        -0.00000000
  10        -0.00010712
  11         0.00010484
  12        -0.00006498
  13         0.00006701
  14        -0.00000000
  15        -0.00000000
  16        -0.00001035
  17         0.00044569
  18        -0.00093892
  19        -0.00014229
  20         0.00007085
  21        -0.00000000
  22        -0.00050898
  23         0.00024868
  24        -0.00000000
  25        -0.00080521
  26        -0.00022551
  27        -0.00002594
  28         0.00046385
  29        -0.00000000
  30         0.00000000
  31        -0.00001233
  32        -0.00005641
  33         0.00034710
  34        -0.00000464
  35         0.00003676
  36        -0.00000000
  37        -0.00005712
  38        -0.00019759
  39         0.00000000
  40        -0.00002886
  41         0.00002267
  42        -0.00006115
  43         0.00014151
  44         0.00000000
  45         0.00000000
  46         0.00001355
  47         0.00006233
  48        -0.00026461
  49         0.00002735
  50        -0.00001585
  51        -0.00000000
  52         0.00011432
  53         0.00051985
  54         0.00000000
  55         0.00005010
  56        -0.00000458
  57         0.00002482
  58        -0.00001389
  59        -0.00000000
  60        -0.00000000
  61        -0.00000440
  62        -0.00003137
  63         0.00068681
  64         0.00001177
  65         0.00000083
  66        -0.00000000
  67         0.00032303
  68        -0.00018524
  69         0.00000000
  70         0.00001370
  71        -0.00000855
  72        -0.00000202
  73        -0.00001481
  74         0.00000000
  75        -0.00000000
  76         0.00000775
  77         0.00005113
  78        -0.00048414
  79         0.00002700
  80        -0.00000869
  81        -0.00000000
  82        -0.00025236
  83        -0.00031048
  84         0.00000000
  85        -0.00000688
  86         0.00001244
  87         0.00001758
  88        -0.00004292
  89         0.00000000
  90         0.00000000
  91         0.99465504
  92         0.02109169
  93         0.00489483
  94        -0.00154566
  95         0.00078266
  96        -0.00000001
  97        -0.00011823
  98         0.00006331
  99         0.00000000
 100        -0.00362933
 101        -0.00390862
 102        -0.00416232
 103        -0.00022067
 104         0.00000000
 105        -0.00000000
 106         0.00001367
 107         0.00006736
 108        -0.00043241
 109         0.00000073
 110        -0.00000755
 111         0.00000000
 112        -0.00001685
 113         0.00008985
 114        -0.00000000
 115         0.00004082
 116         0.00003811
 117         0.00003943
 118         0.00000184
 119        -0.00000000
 120         0.00000000
 121        -0.00003883
 122        -0.00001175
 123         0.00001687
 124        -0.00004695
 125        -0.00000000
 126        -0.00003430
 127        -0.00002166
 128         0.00004928
 129         0.00001323
 130        -0.00000000
 131         0.00000123
 132         0.00000690
 133         0.00007208
 134         0.00000107
 135         0.00000046
 136         0.00000000
 137         0.00001284
 138        -0.00001043
 139        -0.00000000
 140        -0.00000300
 141         0.00000217
 142         0.00000259
 143         0.00000435
 144        -0.00000000
 145        -0.00000000
 146        -0.00000474
 147        -0.00012201
 148         0.00000569
 149         0.00001154
 150        -0.00000000
 151        -0.00000236
 152         0.00000295
 153         0.00000093
 154        -0.00000187
 155         0.00000000
 156         0.00000161
 157        -0.00000501
 158         0.00000093
 159         0.00000005
 160         0.00000128
 161         0.00000161
 162        -0.00000502
 163         0.00000093
 164         0.00000006
 165        -0.00000128
Sym=     3a  
Ene=   -15.6340
Spin= Alpha
Occup=    2.00000
   1         0.99495679
   2         0.02563721
   3        -0.00488531
   4        -0.00003417
   5         0.00017536
   6        -0.00000000
   7        -0.00008261
   8        -0.00165198
   9         0.00000001
  10        -0.00343516
  11        -0.00332627
  12        -0.00332939
  13        -0.00000498
  14         0.00000000
  15         0.00000000
  16         0.00001914
  17         0.00020028
  18         0.00175678
  19        -0.00023772
  20        -0.00011436
  21         0.00000000
  22        -0.00215505
  23        -0.00037240
  24         0.00000000
  25        -0.00008744
  26        -0.00009817
  27        -0.00006094
  28        -0.00006378
  29        -0.00000000
  30        -0.00000000
  31        -0.00077365
  32         0.00000496
  33        -0.00083234
  34        -0.00002283
  35         0.00004782
  36         0.00000000
  37         0.00083661
  38         0.00006843
  39        -0.00000000
  40         0.00006409
  41         0.00005066
  42        -0.00000390
  43        -0.00001608
  44        -0.00000000
  45         0.00000000
  46        -0.00000467
  47        -0.00003766
  48         0.00145334
  49         0.00001897
  50        -0.00002410
  51        -0.00000000
  52        -0.00024161
  53        -0.00093972
  54        -0.00000000
  55         0.00001574
  56         0.00001401
  57        -0.00001102
  58         0.00000946
  59         0.00000000
  60         0.00000000
  61         0.00002688
  62         0.00013457
  63        -0.00211802
  64         0.00002817
  65         0.00003195
  66        -0.00000000
  67        -0.00162634
  68         0.00058782
  69        -0.00000000
  70         0.00000954
  71         0.00000036
  72         0.00002748
  73         0.00003931
  74        -0.00000000
  75        -0.00000000
  76         0.00001298
  77         0.00017330
  78         0.00282424
  79         0.00018587
  80        -0.00010583
  81         0.00000000
  82         0.00180094
  83         0.00064717
  84        -0.00000000
  85        -0.00009185
  86        -0.00005965
  87        -0.00008521
  88         0.00008547
  89        -0.00000000
  90         0.00000000
  91        -0.00002835
  92        -0.00016931
  93         0.00105254
  94         0.00002227
  95        -0.00002235
  96         0.00000000
  97         0.00000593
  98         0.00039395
  99        -0.00000000
 100        -0.00015055
 101        -0.00003089
 102        -0.00012073
 103        -0.00003950
 104         0.00000000
 105        -0.00000000
 106        -0.00001487
 107        -0.00006365
 108         0.00042311
 109        -0.00001000
 110         0.00000805
 111        -0.00000000
 112         0.00006860
 113        -0.00005175
 114         0.00000000
 115        -0.00003560
 116        -0.00004694
 117        -0.00004446
 118        -0.00001372
 119         0.00000000
 120        -0.00000000
 121         0.00012348
 122        -0.00003247
 123         0.00000205
 124        -0.00012199
 125        -0.00000000
 126        -0.00010011
 127        -0.00000308
 128        -0.00000354
 129         0.00000374
 130         0.00000000
 131        -0.00000579
 132        -0.00000456
 133        -0.00054634
 134        -0.00002369
 135         0.00002324
 136        -0.00000000
 137        -0.00011876
 138         0.00007622
 139         0.00000000
 140        -0.00000509
 141        -0.00002410
 142        -0.00002567
 143        -0.00000147
 144         0.00000000
 145         0.00000000
 146         0.00000503
 147         0.00043269
 148        -0.00005971
 149         0.00002402
 150         0.00000000
 151        -0.00000382
 152         0.00006333
 153         0.00000466
 154         0.00000620
 155        -0.00000000
 156         0.00001103
 157         0.00001262
 158        -0.00000655
 159         0.00000074
 160        -0.00000897
 161         0.00001103
 162         0.00001262
 163        -0.00000655
 164         0.00000074
 165         0.00000897
Sym=     4a  
Ene=   -15.6200
Spin= Alpha
Occup=    2.00000
   1         0.00081077
   2         0.00003547
   3        -0.00073679
   4        -0.00005346
   5        -0.00001288
   6         0.00000000
   7         0.00045242
   8        -0.00067056
   9        -0.00000000
  10         0.00006209
  11         0.00003715
  12        -0.00001482
  13        -0.00001455
  14        -0.00000000
  15         0.00000000
  16         0.00001499
  17         0.00021267
  18         0.00169785
  19        -0.00004932
  20         0.00024048
  21         0.00000000
  22        -0.00096334
  23         0.00195975
  24         0.00000000
  25        -0.00004435
  26        -0.00020254
  27        -0.00006560
  28        -0.00002438
  29         0.00000000
  30         0.00000000
  31         0.99496562
  32         0.02569714
  33        -0.00544425
  34        -0.00007810
  35        -0.00019802
  36        -0.00000000
  37         0.00136401
  38         0.00087425
  39         0.00000000
  40        -0.00335959
  41        -0.00335802
  42        -0.00332289
  43         0.00005433
  44         0.00000000
  45        -0.00000000
  46        -0.00000053
  47         0.00010868
  48         0.00205321
  49         0.00018424
  50        -0.00013493
  51        -0.00000000
  52         0.00133548
  53        -0.00228880
  54        -0.00000000
  55        -0.00012166
  56        -0.00005760
  57        -0.00009074
  58         0.00001805
  59        -0.00000000
  60         0.00000000
  61         0.00001750
  62         0.00008094
  63        -0.00158624
  64        -0.00001141
  65        -0.00005165
  66        -0.00000000
  67        -0.00113729
  68         0.00130038
  69         0.00000000
  70        -0.00002661
  71         0.00001928
  72         0.00001350
  73         0.00001624
  74        -0.00000000
  75         0.00000000
  76         0.00000452
  77        -0.00000384
  78         0.00182237
  79         0.00002393
  80         0.00001111
  81         0.00000000
  82         0.00038359
  83         0.00060961
  84        -0.00000000
  85         0.00001458
  86         0.00004133
  87         0.00000280
  88         0.00000100
  89        -0.00000000
  90        -0.00000000
  91        -0.00002960
  92        -0.00017600
  93         0.00108192
  94         0.00003132
  95        -0.00000724
  96         0.00000000
  97        -0.00033027
  98        -0.00023244
  99        -0.00000000
 100        -0.00003522
 101        -0.00014865
 102        -0.00012689
 103         0.00005464
 104         0.00000000
 105         0.00000000
 106        -0.00003771
 107        -0.00021529
 108         0.00140017
 109         0.00000072
 110         0.00002961
 111        -0.00000000
 112        -0.00032911
 113        -0.00024417
 114         0.00000000
 115        -0.00011163
 116        -0.00011707
 117        -0.00014178
 118         0.00007031
 119        -0.00000000
 120        -0.00000000
 121        -0.00009675
 122        -0.00000931
 123        -0.00000328
 124        -0.00000070
 125         0.00000000
 126         0.00015378
 127         0.00001313
 128         0.00009716
 129         0.00006648
 130         0.00000000
 131        -0.00001298
 132        -0.00003757
 133        -0.00046331
 134        -0.00005344
 135        -0.00000555
 136        -0.00000000
 137        -0.00004314
 138         0.00015817
 139         0.00000000
 140        -0.00003073
 141        -0.00002023
 142        -0.00003330
 143        -0.00000866
 144         0.00000000
 145         0.00000000
 146        -0.00001507
 147         0.00009328
 148        -0.00000272
 149        -0.00001609
 150         0.00000000
 151         0.00002575
 152         0.00008433
 153         0.00000594
 154         0.00001098
 155        -0.00000000
 156        -0.00001406
 157        -0.00000041
 158        -0.00001200
 159        -0.00000359
 160        -0.00000524
 161        -0.00001406
 162        -0.00000041
 163        -0.00001200
 164        -0.00000359
 165         0.00000524
Sym=     5a  
Ene=   -11.4070
Spin= Alpha
Occup=    2.00000
   1        -0.00025232
   2         0.00038750
   3        -0.00055828
   4         0.00007704
   5         0.00010019
   6         0.00000000
   7        -0.00110214
   8        -0.00100236
   9        -0.00000000
  10        -0.00058263
  11        -0.00040844
  12         0.00014945
  13        -0.00019061
  14         0.00000000
  15         0.00000000
  16         0.99580334
  17         0.02640297
  18        -0.00168977
  19        -0.00059824
  20         0.00030874
  21         0.00000000
  22         0.00389387
  23        -0.00190318
  24         0.00000001
  25        -0.00059981
  26        -0.00099620
  27        -0.00245265
  28        -0.00031734
  29         0.00000000
  30        -0.00000000
  31        -0.00026167
  32         0.00032434
  33        -0.00027812
  34        -0.00003267
  35        -0.00013620
  36         0.00000000
  37        -0.00013171
  38         0.00181103
  39        -0.00000000
  40        -0.00029005
  41        -0.00069970
  42         0.00010952
  43        -0.00000250
  44         0.00000000
  45        -0.00000000
  46        -0.00049794
  47        -0.00068107
  48         0.00221652
  49        -0.00007215
  50         0.00010688
  51         0.00000000
  52        -0.00158826
  53        -0.00523516
  54        -0.00000000
  55        -0.00004798
  56        -0.00003969
  57        -0.00023977
  58        -0.00004692
  59         0.00000000
  60         0.00000000
  61         0.00002350
  62         0.00039734
  63        -0.00753958
  64        -0.00004194
  65         0.00002409
  66         0.00000000
  67        -0.00402027
  68         0.00237812
  69        -0.00000001
  70        -0.00010308
  71        -0.00005706
  72         0.00007425
  73         0.00005518
  74        -0.00000000
  75        -0.00000000
  76        -0.00020783
  77        -0.00058353
  78         0.00469800
  79        -0.00015526
  80        -0.00002853
  81         0.00000000
  82         0.00277070
  83         0.00390161
  84        -0.00000000
  85         0.00017121
  86         0.00004927
  87        -0.00020369
  88         0.00000174
  89        -0.00000000
  90        -0.00000000
  91        -0.00024397
  92         0.00104778
  93        -0.00599451
  94        -0.00036508
  95         0.00018726
  96        -0.00000000
  97         0.00217522
  98        -0.00111333
  99         0.00000001
 100         0.00041744
 101         0.00043114
 102         0.00058201
 103         0.00000192
 104        -0.00000000
 105         0.00000000
 106        -0.00012748
 107        -0.00056667
 108         0.00418534
 109        -0.00000129
 110         0.00000235
 111        -0.00000000
 112         0.00022743
 113        -0.00080109
 114         0.00000001
 115        -0.00038161
 116        -0.00033204
 117        -0.00029397
 118        -0.00003260
 119         0.00000000
 120        -0.00000000
 121         0.00005953
 122        -0.00004758
 123         0.00011469
 124         0.00021230
 125        -0.00000000
 126         0.00002998
 127         0.00010137
 128        -0.00011881
 129        -0.00021688
 130         0.00000000
 131        -0.00000690
 132        -0.00002085
 133        -0.00129002
 134        -0.00003915
 135         0.00000969
 136        -0.00000000
 137        -0.00038791
 138         0.00017617
 139         0.00000001
 140         0.00001040
 141        -0.00001620
 142        -0.00002080
 143        -0.00002277
 144         0.00000000
 145         0.00000000
 146         0.00022427
 147         0.00162931
 148         0.00002033
 149        -0.00005044
 150         0.00000000
 151         0.00003721
 152        -0.00008557
 153        -0.00001409
 154         0.00001519
 155        -0.00000000
 156        -0.00000197
 157         0.00007291
 158        -0.00000847
 159        -0.00000086
 160        -0.00001378
 161        -0.00000197
 162         0.00007291
 163        -0.00000847
 164        -0.00000086
 165         0.00001378
Sym=     6a  
Ene=   -11.3720
Spin= Alpha
Occup=    2.00000
   1         0.00004124
   2         0.00017925
   3        -0.00235207
   4         0.00004548
   5        -0.00001801
   6        -0.00000000
   7        -0.00143754
   8        -0.00087721
   9         0.00000001
  10         0.00008334
  11         0.00000133
  12         0.00006137
  13        -0.00003161
  14         0.00000000
  15         0.00000000
  16         0.00026110
  17        -0.00055605
  18        -0.00070554
  19         0.00002485
  20        -0.00019796
  21        -0.00000000
  22        -0.00443515
  23        -0.00093725
  24        -0.00000000
  25        -0.00010523
  26        -0.00003656
  27        -0.00022714
  28        -0.00000586
  29        -0.00000000
  30         0.00000000
  31        -0.00026953
  32         0.00026738
  33         0.00093723
  34        -0.00015545
  35         0.00015980
  36         0.00000000
  37         0.00176860
  38        -0.00327736
  39        -0.00000001
  40        -0.00072429
  41        -0.00043654
  42         0.00006938
  43         0.00031032
  44         0.00000000
  45        -0.00000000
  46         0.99586314
  47         0.02695880
  48        -0.00663644
  49         0.00079897
  50        -0.00010031
  51        -0.00000000
  52         0.00447051
  53         0.00720232
  54         0.00000000
  55        -0.00123440
  56        -0.00052424
  57        -0.00230396
  58        -0.00013921
  59        -0.00000000
  60        -0.00000000
  61         0.00308012
  62         0.00003712
  63         0.00564695
  64        -0.00014596
  65         0.00002949
  66        -0.00000000
  67         0.00469514
  68         0.00093872
  69         0.00000001
  70        -0.00042837