[Molden Format]
[N_Atoms]
                   15
[Atoms] (AU)
N1          1      7           0.30414744     -3.12360778      0.00000039
C2          2      6           2.54211672     -1.83855068     -0.00000503
N3          3      7           2.25827074      0.73262253      0.00000001
C4          4      6           0.01663964      2.09395426      0.00000376
C5          5      6          -2.29240599      0.54853951     -0.00000096
C6          6      6          -2.02180350     -1.95096152      0.00000013
O7          7      8           4.55898020     -2.86756312      0.00000120
O8          8      8           0.04936084      4.35263738     -0.00000063
H9          9      1           0.44125338     -4.99608049      0.00000062
H10        10      1           3.85167326      1.73694695      0.00000056
C11        11      6          -4.79222089      1.89418249     -0.00000032
H12        12      1          -3.60980920     -3.21208236      0.00000136
H13        13      1          -6.34142196      0.55384596     -0.00000051
H14        14      1          -4.96970637      3.09704430      1.64900985
H15        15      1          -4.96970631      3.09704441     -1.64901039
[Charge] (Mulliken)
   0.0000000000000000     
   0.0000000000000000     
   0.0000000000000000     
   0.0000000000000000     
   0.0000000000000000     
   0.0000000000000000     
   0.0000000000000000     
   0.0000000000000000     
   0.0000000000000000     
   0.0000000000000000     
   0.0000000000000000     
   0.0000000000000000     
   0.0000000000000000     
   0.0000000000000000     
   0.0000000000000000     
[GTO] (AU)
   1
   s   6
  0.417351146E+04  0.183477216E-02
  0.627457911E+03  0.139946270E-01
  0.142902093E+03  0.685865518E-01
  0.402343293E+02  0.232240873E+00
  0.128202129E+02  0.469069948E+00
  0.439043701E+01  0.360455199E+00
   s   3
  0.116263619E+02 -0.114961182E+00
  0.271627981E+01 -0.169117479E+00
  0.772218397E+00  0.114585195E+01
   s   1
  0.212031497E+00  0.100000000E+01
   p   3
  0.116263619E+02  0.675797439E-01
  0.271627981E+01  0.323907296E+00
  0.772218397E+00  0.740895140E+00
   p   1
  0.212031497E+00  0.100000000E+01
   d   1
  0.800000000E+00  0.100000000E+01
 
   2
   s   6
  0.304752488E+04  0.183473713E-02
  0.457369518E+03  0.140373228E-01
  0.103948685E+03  0.688426223E-01
  0.292101553E+02  0.232184443E+00
  0.928666296E+01  0.467941348E+00
  0.316392696E+01  0.362311985E+00
   s   3
  0.786827235E+01 -0.119332420E+00
  0.188128854E+01 -0.160854152E+00
  0.544249258E+00  0.114345644E+01
   s   1
  0.168714478E+00  0.100000000E+01
   p   3
  0.786827235E+01  0.689990666E-01
  0.188128854E+01  0.316423961E+00
  0.544249258E+00  0.744308291E+00
   p   1
  0.168714478E+00  0.100000000E+01
   d   1
  0.800000000E+00  0.100000000E+01
 
   3
   s   6
  0.417351146E+04  0.183477216E-02
  0.627457911E+03  0.139946270E-01
  0.142902093E+03  0.685865518E-01
  0.402343293E+02  0.232240873E+00
  0.128202129E+02  0.469069948E+00
  0.439043701E+01  0.360455199E+00
   s   3
  0.116263619E+02 -0.114961182E+00
  0.271627981E+01 -0.169117479E+00
  0.772218397E+00  0.114585195E+01
   s   1
  0.212031497E+00  0.100000000E+01
   p   3
  0.116263619E+02  0.675797439E-01
  0.271627981E+01  0.323907296E+00
  0.772218397E+00  0.740895140E+00
   p   1
  0.212031497E+00  0.100000000E+01
   d   1
  0.800000000E+00  0.100000000E+01
 
   4
   s   6
  0.304752488E+04  0.183473713E-02
  0.457369518E+03  0.140373228E-01
  0.103948685E+03  0.688426223E-01
  0.292101553E+02  0.232184443E+00
  0.928666296E+01  0.467941348E+00
  0.316392696E+01  0.362311985E+00
   s   3
  0.786827235E+01 -0.119332420E+00
  0.188128854E+01 -0.160854152E+00
  0.544249258E+00  0.114345644E+01
   s   1
  0.168714478E+00  0.100000000E+01
   p   3
  0.786827235E+01  0.689990666E-01
  0.188128854E+01  0.316423961E+00
  0.544249258E+00  0.744308291E+00
   p   1
  0.168714478E+00  0.100000000E+01
   d   1
  0.800000000E+00  0.100000000E+01
 
   5
   s   6
  0.304752488E+04  0.183473713E-02
  0.457369518E+03  0.140373228E-01
  0.103948685E+03  0.688426223E-01
  0.292101553E+02  0.232184443E+00
  0.928666296E+01  0.467941348E+00
  0.316392696E+01  0.362311985E+00
   s   3
  0.786827235E+01 -0.119332420E+00
  0.188128854E+01 -0.160854152E+00
  0.544249258E+00  0.114345644E+01
   s   1
  0.168714478E+00  0.100000000E+01
   p   3
  0.786827235E+01  0.689990666E-01
  0.188128854E+01  0.316423961E+00
  0.544249258E+00  0.744308291E+00
   p   1
  0.168714478E+00  0.100000000E+01
   d   1
  0.800000000E+00  0.100000000E+01
 
   6
   s   6
  0.304752488E+04  0.183473713E-02
  0.457369518E+03  0.140373228E-01
  0.103948685E+03  0.688426223E-01
  0.292101553E+02  0.232184443E+00
  0.928666296E+01  0.467941348E+00
  0.316392696E+01  0.362311985E+00
   s   3
  0.786827235E+01 -0.119332420E+00
  0.188128854E+01 -0.160854152E+00
  0.544249258E+00  0.114345644E+01
   s   1
  0.168714478E+00  0.100000000E+01
   p   3
  0.786827235E+01  0.689990666E-01
  0.188128854E+01  0.316423961E+00
  0.544249258E+00  0.744308291E+00
   p   1
  0.168714478E+00  0.100000000E+01
   d   1
  0.800000000E+00  0.100000000E+01
 
   7
   s   6
  0.548467166E+04  0.183107443E-02
  0.825234946E+03  0.139501722E-01
  0.188046958E+03  0.684450781E-01
  0.529645000E+02  0.232714336E+00
  0.168975704E+02  0.470192898E+00
  0.579963534E+01  0.358520853E+00
   s   3
  0.155396162E+02 -0.110777550E+00
  0.359993359E+01 -0.148026263E+00
  0.101376175E+01  0.113076702E+01
   s   1
  0.270005823E+00  0.100000000E+01
   p   3
  0.155396162E+02  0.708742682E-01
  0.359993359E+01  0.339752839E+00
  0.101376175E+01  0.727158577E+00
   p   1
  0.270005823E+00  0.100000000E+01
   d   1
  0.800000000E+00  0.100000000E+01
 
   8
   s   6
  0.548467166E+04  0.183107443E-02
  0.825234946E+03  0.139501722E-01
  0.188046958E+03  0.684450781E-01
  0.529645000E+02  0.232714336E+00
  0.168975704E+02  0.470192898E+00
  0.579963534E+01  0.358520853E+00
   s   3
  0.155396162E+02 -0.110777550E+00
  0.359993359E+01 -0.148026263E+00
  0.101376175E+01  0.113076702E+01
   s   1
  0.270005823E+00  0.100000000E+01
   p   3
  0.155396162E+02  0.708742682E-01
  0.359993359E+01  0.339752839E+00
  0.101376175E+01  0.727158577E+00
   p   1
  0.270005823E+00  0.100000000E+01
   d   1
  0.800000000E+00  0.100000000E+01
 
   9
   s   3
  0.187311370E+02  0.334946043E-01
  0.282539437E+01  0.234726954E+00
  0.640121692E+00  0.813757326E+00
   s   1
  0.161277759E+00  0.100000000E+01
   p   1
  0.110000000E+01  0.100000000E+01
 
  10
   s   3
  0.187311370E+02  0.334946043E-01
  0.282539437E+01  0.234726954E+00
  0.640121692E+00  0.813757326E+00
   s   1
  0.161277759E+00  0.100000000E+01
   p   1
  0.110000000E+01  0.100000000E+01
 
  11
   s   6
  0.304752488E+04  0.183473713E-02
  0.457369518E+03  0.140373228E-01
  0.103948685E+03  0.688426223E-01
  0.292101553E+02  0.232184443E+00
  0.928666296E+01  0.467941348E+00
  0.316392696E+01  0.362311985E+00
   s   3
  0.786827235E+01 -0.119332420E+00
  0.188128854E+01 -0.160854152E+00
  0.544249258E+00  0.114345644E+01
   s   1
  0.168714478E+00  0.100000000E+01
   p   3
  0.786827235E+01  0.689990666E-01
  0.188128854E+01  0.316423961E+00
  0.544249258E+00  0.744308291E+00
   p   1
  0.168714478E+00  0.100000000E+01
   d   1
  0.800000000E+00  0.100000000E+01
 
  12
   s   3
  0.187311370E+02  0.334946043E-01
  0.282539437E+01  0.234726954E+00
  0.640121692E+00  0.813757326E+00
   s   1
  0.161277759E+00  0.100000000E+01
   p   1
  0.110000000E+01  0.100000000E+01
 
  13
   s   3
  0.187311370E+02  0.334946043E-01
  0.282539437E+01  0.234726954E+00
  0.640121692E+00  0.813757326E+00
   s   1
  0.161277759E+00  0.100000000E+01
   p   1
  0.110000000E+01  0.100000000E+01
 
  14
   s   3
  0.187311370E+02  0.334946043E-01
  0.282539437E+01  0.234726954E+00
  0.640121692E+00  0.813757326E+00
   s   1
  0.161277759E+00  0.100000000E+01
   p   1
  0.110000000E+01  0.100000000E+01
 
  15
   s   3
  0.187311370E+02  0.334946043E-01
  0.282539437E+01  0.234726954E+00
  0.640121692E+00  0.813757326E+00
   s   1
  0.161277759E+00  0.100000000E+01
   p   1
  0.110000000E+01  0.100000000E+01
 
[MO]
Sym=     1a  
Ene=     0.0000
Spin= Alpha
Occup=    2.00000
   1        -0.00001311
   2        -0.00006010
   3         0.00033618
   4        -0.00003341
   5        -0.00001657
   6        -0.00000000
   7         0.00011699
   8         0.00012634
   9        -0.00000000
  10        -0.00010549
  11         0.00010160
  12        -0.00006360
  13         0.00006667
  14        -0.00000000
  15        -0.00000000
  16        -0.00001393
  17         0.00043793
  18        -0.00102892
  19        -0.00013849
  20         0.00006964
  21        -0.00000000
  22        -0.00060420
  23         0.00030665
  24        -0.00000000
  25        -0.00079343
  26        -0.00022218
  27        -0.00003975
  28         0.00045575
  29        -0.00000000
  30         0.00000000
  31        -0.00001191
  32        -0.00005311
  33         0.00031772
  34        -0.00000597
  35         0.00003633
  36        -0.00000000
  37        -0.00001923
  38        -0.00020245
  39         0.00000000
  40        -0.00002928
  41         0.00002189
  42        -0.00005903
  43         0.00013878
  44         0.00000000
  45         0.00000000
  46         0.00001439
  47         0.00006385
  48        -0.00024045
  49         0.00002871
  50        -0.00001713
  51        -0.00000000
  52         0.00012665
  53         0.00051850
  54         0.00000000
  55         0.00005193
  56        -0.00000143
  57         0.00002623
  58        -0.00001405
  59        -0.00000000
  60        -0.00000000
  61        -0.00000423
  62        -0.00003018
  63         0.00069043
  64         0.00001302
  65         0.00000058
  66        -0.00000000
  67         0.00031289
  68        -0.00018161
  69         0.00000000
  70         0.00001403
  71        -0.00000879
  72        -0.00000156
  73        -0.00001519
  74         0.00000000
  75        -0.00000000
  76         0.00000865
  77         0.00005307
  78        -0.00046534
  79         0.00002952
  80        -0.00000890
  81        -0.00000000
  82        -0.00024567
  83        -0.00032138
  84         0.00000000
  85        -0.00000435
  86         0.00001413
  87         0.00001923
  88        -0.00004265
  89         0.00000000
  90         0.00000000
  91         0.99464815
  92         0.02107177
  93         0.00507215
  94        -0.00151476
  95         0.00077383
  96        -0.00000001
  97        -0.00015312
  98         0.00007600
  99        -0.00000000
 100        -0.00366801
 101        -0.00402664
 102        -0.00416643
 103        -0.00028326
 104         0.00000000
 105        -0.00000000
 106         0.00001482
 107         0.00006830
 108        -0.00044049
 109         0.00000219
 110        -0.00000709
 111         0.00000000
 112        -0.00001729
 113         0.00009302
 114        -0.00000000
 115         0.00004192
 116         0.00003769
 117         0.00003989
 118         0.00000178
 119        -0.00000000
 120         0.00000000
 121        -0.00004200
 122        -0.00001834
 123         0.00001583
 124        -0.00004608
 125        -0.00000000
 126        -0.00003729
 127        -0.00002840
 128         0.00004802
 129         0.00001370
 130        -0.00000000
 131         0.00000120
 132         0.00000710
 133         0.00006543
 134         0.00000051
 135         0.00000069
 136         0.00000000
 137         0.00001171
 138        -0.00000815
 139        -0.00000000
 140        -0.00000330
 141         0.00000197
 142         0.00000237
 143         0.00000451
 144        -0.00000000
 145        -0.00000000
 146        -0.00000599
 147        -0.00012567
 148         0.00000494
 149         0.00001129
 150        -0.00000000
 151        -0.00000226
 152         0.00000473
 153         0.00000107
 154        -0.00000183
 155         0.00000000
 156         0.00000175
 157        -0.00000521
 158         0.00000085
 159         0.00000000
 160         0.00000127
 161         0.00000175
 162        -0.00000521
 163         0.00000085
 164         0.00000000
 165        -0.00000127
Sym=     2a  
Ene=     0.0000
Spin= Alpha
Occup=    2.00000
   1        -0.00000126
   2        -0.00000338
   3         0.00019178
   4         0.00000195
   5         0.00000632
   6         0.00000000
   7         0.00005939
   8         0.00003752
   9        -0.00000000
  10        -0.00002357
  11         0.00000879
  12         0.00000580
  13         0.00000370
  14         0.00000000
  15        -0.00000000
  16         0.00001245
  17         0.00005273
  18         0.00001891
  19        -0.00000274
  20         0.00003518
  21         0.00000000
  22         0.00037419
  23        -0.00001931
  24         0.00000000
  25         0.00000173
  26         0.00005302
  27         0.00002201
  28         0.00001631
  29         0.00000000
  30         0.00000000
  31        -0.00001114
  32        -0.00004568
  33         0.00020198
  34         0.00004148
  35        -0.00003269
  36         0.00000000
  37        -0.00015129
  38         0.00021728
  39         0.00000000
  40         0.00007214
  41        -0.00010216
  42        -0.00005787
  43         0.00006174
  44        -0.00000000
  45        -0.00000000
  46        -0.00001383
  47         0.00040664
  48        -0.00078992
  49         0.00000486
  50        -0.00016654
  51         0.00000000
  52        -0.00022392
  53        -0.00092863
  54         0.00000000
  55        -0.00003088
  56        -0.00093439
  57        -0.00004624
  58        -0.00000494
  59         0.00000000
  60         0.00000000
  61        -0.00000183
  62        -0.00001030
  63        -0.00018417
  64        -0.00000219
  65        -0.00002688
  66         0.00000000
  67        -0.00018899
  68         0.00015245
  69        -0.00000000
  70         0.00007043
  71        -0.00007527
  72        -0.00002092
  73        -0.00003620
  74         0.00000000
  75        -0.00000000
  76         0.00000204
  77         0.00002767
  78         0.00009326
  79        -0.00000433
  80         0.00002387
  81         0.00000000
  82        -0.00001681
  83         0.00001162
  84         0.00000000
  85        -0.00001002
  86         0.00000779
  87         0.00000380
  88        -0.00004108
  89        -0.00000000
  90        -0.00000000
  91         0.00001296
  92         0.00006107
  93        -0.00037650
  94        -0.00000631
  95         0.00000304
  96        -0.00000000
  97         0.00007090
  98        -0.00006002
  99         0.00000000
 100         0.00003282
 101         0.00003571
 102         0.00003687
 103         0.00000391
 104        -0.00000000
 105         0.00000000
 106         0.99463138
 107         0.02106084
 108         0.00527547
 109         0.00001894
 110        -0.00165319
 111         0.00000000
 112         0.00000197
 113        -0.00019965
 114         0.00000000
 115        -0.00411646
 116        -0.00359907
 117        -0.00423272
 118         0.00000979
 119        -0.00000000
 120        -0.00000000
 121        -0.00000988
 122        -0.00000457
 123        -0.00000217
 124        -0.00000505
 125         0.00000000
 126        -0.00004139
 127        -0.00004123
 128         0.00003154
 129         0.00002421
 130         0.00000000
 131         0.00000349
 132         0.00001899
 133        -0.00011260
 134         0.00000143
 135         0.00002228
 136        -0.00000000
 137        -0.00014408
 138        -0.00004590
 139         0.00000000
 140        -0.00000236
 141        -0.00000091
 142         0.00000565
 143         0.00002140
 144         0.00000000
 145        -0.00000000
 146         0.00000768
 147        -0.00000946
 148         0.00001076
 149         0.00000594
 150        -0.00000000
 151        -0.00001273
 152        -0.00007362
 153        -0.00000490
 154        -0.00000807
 155        -0.00000000
 156         0.00002351
 157        -0.00000986
 158         0.00000838
 159         0.00000809
 160        -0.00000055
 161         0.00002351
 162        -0.00000986
 163         0.00000838
 164         0.00000809
 165         0.00000055
Sym=     3a  
Ene=     0.0000
Spin= Alpha
Occup=    2.00000
   1         0.99498249
   2         0.02554186
   3        -0.00494123
   4         0.00017261
   5         0.00010438
   6        -0.00000001
   7        -0.00036541
   8        -0.00161215
   9         0.00000001
  10        -0.00339855
  11        -0.00325985
  12        -0.00333058
  13        -0.00000413
  14         0.00000000
  15         0.00000000
  16         0.00001792
  17         0.00022387
  18         0.00180644
  19        -0.00022775
  20        -0.00011197
  21        -0.00000000
  22        -0.00219092
  23        -0.00062168
  24         0.00000000
  25        -0.00013026
  26        -0.00010509
  27        -0.00006040
  28        -0.00008478
  29         0.00000000
  30        -0.00000000
  31        -0.00149319
  32        -0.00002502
  33        -0.00070730
  34        -0.00002548
  35         0.00005140
  36        -0.00000000
  37         0.00089390
  38        -0.00005643
  39        -0.00000000
  40         0.00006276
  41         0.00005226
  42        -0.00000914
  43        -0.00001624
  44        -0.00000000
  45         0.00000000
  46        -0.00000360
  47        -0.00003633
  48         0.00145006
  49         0.00001801
  50        -0.00002451
  51        -0.00000000
  52        -0.00014191
  53        -0.00094501
  54        -0.00000000
  55         0.00001971
  56         0.00001456
  57        -0.00000926
  58         0.00001046
  59         0.00000000
  60         0.00000000
  61         0.00002747
  62         0.00013634
  63        -0.00217577
  64         0.00002921
  65         0.00002980
  66        -0.00000000
  67        -0.00160273
  68         0.00072113
  69        -0.00000000
  70         0.00000889
  71        -0.00000537
  72         0.00003120
  73         0.00003478
  74        -0.00000000
  75        -0.00000000
  76         0.00000939
  77         0.00013307
  78         0.00277760
  79         0.00018508
  80        -0.00010598
  81        -0.00000000
  82         0.00172921
  83         0.00081428
  84        -0.00000000
  85        -0.00006042
  86        -0.00004969
  87        -0.00008451
  88         0.00006294
  89        -0.00000000
  90         0.00000000
  91        -0.00002822
  92        -0.00016794
  93         0.00099731
  94         0.00001931
  95        -0.00003242
  96        -0.00000000
  97         0.00001654
  98         0.00042077
  99        -0.00000000
 100        -0.00014795
 101        -0.00002136
 102        -0.00012526
 103        -0.00004572
 104         0.00000000
 105        -0.00000000
 106        -0.00001476
 107        -0.00006340
 108         0.00042386
 109        -0.00000991
 110         0.00000759
 111        -0.00000000
 112         0.00005520
 113        -0.00005187
 114         0.00000000
 115        -0.00003512
 116        -0.00004685
 117        -0.00004492
 118        -0.00001213
 119         0.00000000
 120        -0.00000000
 121         0.00010520
 122        -0.00001329
 123         0.00001207
 124        -0.00014970
 125        -0.00000000
 126        -0.00010435
 127        -0.00000097
 128        -0.00000554
 129         0.00000764
 130         0.00000000
 131        -0.00000556
 132        -0.00000345
 133        -0.00056318
 134        -0.00002503
 135         0.00002173
 136        -0.00000000
 137        -0.00013810
 138         0.00006795
 139         0.00000000
 140        -0.00000785
 141        -0.00002131
 142        -0.00002486
 143        -0.00000218
 144         0.00000000
 145         0.00000000
 146         0.00001675
 147         0.00046354
 148        -0.00005264
 149         0.00002022
 150         0.00000000
 151        -0.00000232
 152         0.00005031
 153         0.00000452
 154         0.00000593
 155        -0.00000000
 156         0.00001069
 157         0.00001509
 158        -0.00000651
 159         0.00000136
 160        -0.00000900
 161         0.00001069
 162         0.00001509
 163        -0.00000651
 164         0.00000136
 165         0.00000900
Sym=     4a  
Ene=     0.0000
Spin= Alpha
Occup=    2.00000
   1         0.00152420
   2         0.00004490
   3        -0.00063893
   4        -0.00005386
   5        -0.00001246
   6        -0.00000000
   7         0.00053751
   8        -0.00065041
   9        -0.00000000
  10         0.00005808
  11         0.00003220
  12        -0.00002384
  13        -0.00001328
  14        -0.00000000
  15         0.00000000
  16         0.00001422
  17         0.00022537
  18         0.00172299
  19        -0.00004478
  20         0.00023212
  21        -0.00000000
  22        -0.00083708
  23         0.00207411
  24         0.00000000
  25        -0.00004418
  26        -0.00023170
  27        -0.00006492
  28        -0.00001374
  29         0.00000000
  30         0.00000000
  31         0.99498633
  32         0.02560950
  33        -0.00543323
  34         0.00005098
  35        -0.00025901
  36        -0.00000000
  37         0.00121464
  38         0.00101599
  39         0.00000000
  40        -0.00331542
  41        -0.00332301
  42        -0.00332417
  43         0.00007031
  44         0.00000000
  45        -0.00000000
  46        -0.00000334
  47         0.00008507
  48         0.00198048
  49         0.00018371
  50        -0.00012782
  51        -0.00000000
  52         0.00120020
  53        -0.00225907
  54        -0.00000000
  55        -0.00010044
  56        -0.00004911
  57        -0.00009140
  58         0.00000708
  59        -0.00000000
  60         0.00000000
  61         0.00001874
  62         0.00008393
  63        -0.00159811
  64        -0.00001040
  65        -0.00005092
  66        -0.00000000
  67        -0.00117701
  68         0.00122353
  69        -0.00000000
  70        -0.00002524
  71         0.00001764
  72         0.00001529
  73         0.00001447
  74        -0.00000000
  75         0.00000000
  76         0.00000477
  77        -0.00000383
  78         0.00180145
  79         0.00002297
  80         0.00001215
  81        -0.00000000
  82         0.00042180
  83         0.00056342
  84        -0.00000000
  85         0.00001450
  86         0.00004243
  87         0.00000344
  88         0.00000023
  89        -0.00000000
  90        -0.00000000
  91        -0.00003002
  92        -0.00017520
  93         0.00104450
  94         0.00003916
  95         0.00000552
  96        -0.00000000
  97        -0.00033896
  98        -0.00024232
  99        -0.00000000
 100        -0.00002804
 101        -0.00014835
 102        -0.00012973
 103         0.00005514
 104         0.00000000
 105         0.00000000
 106        -0.00003782
 107        -0.00020980
 108         0.00138243
 109        -0.00001113
 110         0.00002833
 111        -0.00000000
 112        -0.00031918
 113        -0.00023646
 114         0.00000000
 115        -0.00011080
 116        -0.00011661
 117        -0.00013274
 118         0.00006548
 119        -0.00000000
 120        -0.00000000
 121        -0.00009968
 122        -0.00000717
 123        -0.00000597
 124        -0.00000123
 125         0.00000000
 126         0.00013489
 127         0.00002835
 128         0.00012088
 129         0.00007443
 130         0.00000000
 131        -0.00001223
 132        -0.00003471
 133        -0.00047318
 134        -0.00005202
 135        -0.00000464
 136        -0.00000000
 137        -0.00004389
 138         0.00016319
 139         0.00000000
 140        -0.00002874
 141        -0.00002063
 142        -0.00003207
 143        -0.00000745
 144         0.00000000
 145         0.00000000
 146        -0.00001441
 147         0.00009401
 148        -0.00000366
 149        -0.00001459
 150        -0.00000000
 151         0.00002528
 152         0.00008609
 153         0.00000544
 154         0.00001080
 155        -0.00000000
 156        -0.00001314
 157         0.00000001
 158        -0.00001157
 159        -0.00000388
 160        -0.00000509
 161        -0.00001313
 162         0.00000001
 163        -0.00001157
 164        -0.00000388
 165         0.00000509
Sym=     5a  
Ene=     0.0000
Spin= Alpha
Occup=    2.00000
   1        -0.00025665
   2         0.00033606
   3        -0.00036994
   4         0.00009993
   5         0.00010897
   6         0.00000002
   7        -0.00092937
   8        -0.00075692
   9         0.00000002
  10        -0.00049426
  11        -0.00039052
  12         0.00012236
  13        -0.00011405
  14         0.00000000
  15         0.00000000
  16         0.99565232
  17         0.02752029
  18        -0.00155528
  19         0.00023908
  20        -0.00006173
  21         0.00000004
  22         0.00396813
  23        -0.00191707
  24         0.00000002
  25        -0.00085400
  26        -0.00138224
  27        -0.00265124
  28        -0.00043158
  29         0.00000000
  30        -0.00000000
  31        -0.00026416
  32         0.00029189
  33        -0.00013594
  34        -0.00003008
  35        -0.00015293
  36         0.00000002
  37        -0.00022163
  38         0.00159310
  39         0.00000001
  40        -0.00030747
  41        -0.00059961
  42         0.00009014
  43        -0.00000717
  44         0.00000000
  45        -0.00000000
  46        -0.00030770
  47        -0.00063521
  48         0.00204857
  49        -0.00006838
  50         0.00009976
  51         0.00000001
  52        -0.00149232
  53        -0.00484700
  54        -0.00000000
  55        -0.00004858
  56        -0.00002963
  57        -0.00022481
  58        -0.00005170
  59         0.00000000
  60         0.00000000
  61         0.00002489
  62         0.00036417
  63        -0.00690451
  64        -0.00003743
  65         0.00001752
  66         0.00000000
  67        -0.00373882
  68         0.00215329
  69        -0.00000001
  70        -0.00009669
  71        -0.00004730
  72         0.00006863
  73         0.00005235
  74        -0.00000000
  75        -0.00000000
  76        -0.00016887
  77        -0.00054122
  78         0.00428655
  79        -0.00014235
  80        -0.00002456
  81         0.00000001
  82         0.00256996
  83         0.00353443
  84        -0.00000000
  85         0.00016875
  86         0.00003681
  87        -0.00018829
  88         0.00000517
  89        -0.00000000
  90        -0.00000000
  91        -0.00021623
  92         0.00113647
  93        -0.00660135
  94        -0.00028128
  95         0.00014245
  96         0.00000002
  97         0.00260525
  98        -0.00133829
  99         0.00000003
 100         0.00023357
 101         0.00045343
 102         0.00065735
 103         0.00017250
 104        -0.00000000
 105         0.00000000
 106        -0.00011854
 107        -0.00052731
 108         0.00388315
 109        -0.00000823
 110         0.00000307
 111        -0.00000000
 112         0.00020900
 113        -0.00074459
 114         0.00000001
 115        -0.00035330
 116        -0.00030919
 117        -0.00027293
 118        -0.00003352
 119         0.00000000
 120        -0.00000000
 121         0.00007978
 122         0.00001989
 123         0.00011069
 124         0.00021160
 125         0.00000000
 126         0.00004699
 127         0.00014872
 128        -0.00011712
 129        -0.00021587
 130         0.00000000
 131        -0.00000571
 132        -0.00001720
 133        -0.00121214
 134        -0.00003672
 135         0.00000922
 136         0.00000000
 137        -0.00035846
 138         0.00017337
 139         0.00000001
 140         0.00001033
 141        -0.00001519
 142        -0.00001898
 143        -0.00002057
 144         0.00000000
 145         0.00000000
 146         0.00020463
 147         0.00149741
 148         0.00001911
 149        -0.00004802
 150         0.00000000
 151         0.00003514
 152        -0.00007152
 153        -0.00001278
 154         0.00001414
 155        -0.00000000
 156        -0.00000134
 157         0.00006743
 158        -0.00000770
 159        -0.00000120
 160        -0.00001263
 161        -0.00000134
 162         0.00006744
 163        -0.00000770
 164        -0.00000120
 165         0.00001263
Sym=     6a  
Ene=     0.0000
Spin= Alpha
Occup=    2.00000
   1        -0.00003993
   2        -0.00017302
   3         0.00227122
   4        -0.00004486
   5         0.00001678
   6         0.00000000
   7         0.00151869
   8         0.00084124
   9        -0.00000001
  10        -0.00008162
  11        -0.00000370
  12        -0.00006259
  13         0.00003840
  14        -0.00000000
  15        -0.00000000
  16        -0.00007999
  17         0.00055553
  18         0.00062188
  19        -0.00002398
  20         0.00017436
  21         0.00000000
  22         0.00450179
  23         0.00095692
  24         0.00000000
  25         0.00009984
  26         0.00001815
  27         0.00022485
  28         0.00000220
  29         0.00000000
  30         0.00000000
  31         0.00025759
  32        -0.00027868
  33        -0.00087274
  34         0.00013517
  35        -0.00013490
  36         0.00000001
  37        -0.00187232
  38         0.00322501
  39         0.00000001
  40         0.00073780
  41         0.00045453
  42        -0.00006569
  43        -0.00033930
  44        -0.00000000
  45         0.00000000
  46        -0.99573849
  47        -0.02777365
  48         0.00621802
  49        -0.00113006
  50        -0.00039636
  51         0.00000002
  52        -0.00423734
  53        -0.00716705
  54         0.00000000
  55         0.00153533
  56         0.00068147
  57         0.00240795
  58         0.00015733
  59         0.00000000
  60         0.00000000
  61        -0.00399730
  62        -0.00000884
  63        -0.00558022
  64         0.00012269
  65        -0.00005524
  66         0.00000001
  67        -0.00491021
  68        -0.00085268
  69        -0.00000001
  70         0.00035794