[Molden Format]
[N_Atoms]
                   15
[Atoms] (AU)
N1          1      7           0.30238381     -3.12354392      0.00138643
C2          2      6           2.54502560     -1.83953704     -0.00304871
N3          3      7           2.25757155      0.73366247     -0.00013130
C4          4      6           0.01803571      2.09416898      0.00473296
C5          5      6          -2.29254949      0.54769410      0.00402248
C6          6      6          -2.02113075     -1.95038816      0.00470908
O7          7      8           4.55580181     -2.86614865     -0.00856784
O8          8      8           0.04954159      4.35249939      0.00615045
H9          9      1           0.44049365     -4.99617181      0.00086998
H10        10      1           3.85220323      1.73765307     -0.00254371
C11        11      6          -4.79183467      1.89369314     -0.00181373
H12        12      1          -3.61028572     -3.21199198      0.00677164
H13        13      1          -6.34119141      0.55330606     -0.00715726
H14        14      1          -4.97478233      3.09682656      1.64628854
H15        15      1          -4.96391460      3.09624964     -1.65166895
[Charge] (Mulliken)
   0.0000000000000000     
   0.0000000000000000     
   0.0000000000000000     
   0.0000000000000000     
   0.0000000000000000     
   0.0000000000000000     
   0.0000000000000000     
   0.0000000000000000     
   0.0000000000000000     
   0.0000000000000000     
   0.0000000000000000     
   0.0000000000000000     
   0.0000000000000000     
   0.0000000000000000     
   0.0000000000000000     
[GTO] (AU)
   1
   s   6
  0.417351146E+04  0.183477216E-02
  0.627457911E+03  0.139946270E-01
  0.142902093E+03  0.685865518E-01
  0.402343293E+02  0.232240873E+00
  0.128202129E+02  0.469069948E+00
  0.439043701E+01  0.360455199E+00
   s   3
  0.116263619E+02 -0.114961182E+00
  0.271627981E+01 -0.169117479E+00
  0.772218397E+00  0.114585195E+01
   s   1
  0.212031497E+00  0.100000000E+01
   p   3
  0.116263619E+02  0.675797439E-01
  0.271627981E+01  0.323907296E+00
  0.772218397E+00  0.740895140E+00
   p   1
  0.212031497E+00  0.100000000E+01
   d   1
  0.800000000E+00  0.100000000E+01
 
   2
   s   6
  0.304752488E+04  0.183473713E-02
  0.457369518E+03  0.140373228E-01
  0.103948685E+03  0.688426223E-01
  0.292101553E+02  0.232184443E+00
  0.928666296E+01  0.467941348E+00
  0.316392696E+01  0.362311985E+00
   s   3
  0.786827235E+01 -0.119332420E+00
  0.188128854E+01 -0.160854152E+00
  0.544249258E+00  0.114345644E+01
   s   1
  0.168714478E+00  0.100000000E+01
   p   3
  0.786827235E+01  0.689990666E-01
  0.188128854E+01  0.316423961E+00
  0.544249258E+00  0.744308291E+00
   p   1
  0.168714478E+00  0.100000000E+01
   d   1
  0.800000000E+00  0.100000000E+01
 
   3
   s   6
  0.417351146E+04  0.183477216E-02
  0.627457911E+03  0.139946270E-01
  0.142902093E+03  0.685865518E-01
  0.402343293E+02  0.232240873E+00
  0.128202129E+02  0.469069948E+00
  0.439043701E+01  0.360455199E+00
   s   3
  0.116263619E+02 -0.114961182E+00
  0.271627981E+01 -0.169117479E+00
  0.772218397E+00  0.114585195E+01
   s   1
  0.212031497E+00  0.100000000E+01
   p   3
  0.116263619E+02  0.675797439E-01
  0.271627981E+01  0.323907296E+00
  0.772218397E+00  0.740895140E+00
   p   1
  0.212031497E+00  0.100000000E+01
   d   1
  0.800000000E+00  0.100000000E+01
 
   4
   s   6
  0.304752488E+04  0.183473713E-02
  0.457369518E+03  0.140373228E-01
  0.103948685E+03  0.688426223E-01
  0.292101553E+02  0.232184443E+00
  0.928666296E+01  0.467941348E+00
  0.316392696E+01  0.362311985E+00
   s   3
  0.786827235E+01 -0.119332420E+00
  0.188128854E+01 -0.160854152E+00
  0.544249258E+00  0.114345644E+01
   s   1
  0.168714478E+00  0.100000000E+01
   p   3
  0.786827235E+01  0.689990666E-01
  0.188128854E+01  0.316423961E+00
  0.544249258E+00  0.744308291E+00
   p   1
  0.168714478E+00  0.100000000E+01
   d   1
  0.800000000E+00  0.100000000E+01
 
   5
   s   6
  0.304752488E+04  0.183473713E-02
  0.457369518E+03  0.140373228E-01
  0.103948685E+03  0.688426223E-01
  0.292101553E+02  0.232184443E+00
  0.928666296E+01  0.467941348E+00
  0.316392696E+01  0.362311985E+00
   s   3
  0.786827235E+01 -0.119332420E+00
  0.188128854E+01 -0.160854152E+00
  0.544249258E+00  0.114345644E+01
   s   1
  0.168714478E+00  0.100000000E+01
   p   3
  0.786827235E+01  0.689990666E-01
  0.188128854E+01  0.316423961E+00
  0.544249258E+00  0.744308291E+00
   p   1
  0.168714478E+00  0.100000000E+01
   d   1
  0.800000000E+00  0.100000000E+01
 
   6
   s   6
  0.304752488E+04  0.183473713E-02
  0.457369518E+03  0.140373228E-01
  0.103948685E+03  0.688426223E-01
  0.292101553E+02  0.232184443E+00
  0.928666296E+01  0.467941348E+00
  0.316392696E+01  0.362311985E+00
   s   3
  0.786827235E+01 -0.119332420E+00
  0.188128854E+01 -0.160854152E+00
  0.544249258E+00  0.114345644E+01
   s   1
  0.168714478E+00  0.100000000E+01
   p   3
  0.786827235E+01  0.689990666E-01
  0.188128854E+01  0.316423961E+00
  0.544249258E+00  0.744308291E+00
   p   1
  0.168714478E+00  0.100000000E+01
   d   1
  0.800000000E+00  0.100000000E+01
 
   7
   s   6
  0.548467166E+04  0.183107443E-02
  0.825234946E+03  0.139501722E-01
  0.188046958E+03  0.684450781E-01
  0.529645000E+02  0.232714336E+00
  0.168975704E+02  0.470192898E+00
  0.579963534E+01  0.358520853E+00
   s   3
  0.155396162E+02 -0.110777550E+00
  0.359993359E+01 -0.148026263E+00
  0.101376175E+01  0.113076702E+01
   s   1
  0.270005823E+00  0.100000000E+01
   p   3
  0.155396162E+02  0.708742682E-01
  0.359993359E+01  0.339752839E+00
  0.101376175E+01  0.727158577E+00
   p   1
  0.270005823E+00  0.100000000E+01
   d   1
  0.800000000E+00  0.100000000E+01
 
   8
   s   6
  0.548467166E+04  0.183107443E-02
  0.825234946E+03  0.139501722E-01
  0.188046958E+03  0.684450781E-01
  0.529645000E+02  0.232714336E+00
  0.168975704E+02  0.470192898E+00
  0.579963534E+01  0.358520853E+00
   s   3
  0.155396162E+02 -0.110777550E+00
  0.359993359E+01 -0.148026263E+00
  0.101376175E+01  0.113076702E+01
   s   1
  0.270005823E+00  0.100000000E+01
   p   3
  0.155396162E+02  0.708742682E-01
  0.359993359E+01  0.339752839E+00
  0.101376175E+01  0.727158577E+00
   p   1
  0.270005823E+00  0.100000000E+01
   d   1
  0.800000000E+00  0.100000000E+01
 
   9
   s   3
  0.187311370E+02  0.334946043E-01
  0.282539437E+01  0.234726954E+00
  0.640121692E+00  0.813757326E+00
   s   1
  0.161277759E+00  0.100000000E+01
   p   1
  0.110000000E+01  0.100000000E+01
 
  10
   s   3
  0.187311370E+02  0.334946043E-01
  0.282539437E+01  0.234726954E+00
  0.640121692E+00  0.813757326E+00
   s   1
  0.161277759E+00  0.100000000E+01
   p   1
  0.110000000E+01  0.100000000E+01
 
  11
   s   6
  0.304752488E+04  0.183473713E-02
  0.457369518E+03  0.140373228E-01
  0.103948685E+03  0.688426223E-01
  0.292101553E+02  0.232184443E+00
  0.928666296E+01  0.467941348E+00
  0.316392696E+01  0.362311985E+00
   s   3
  0.786827235E+01 -0.119332420E+00
  0.188128854E+01 -0.160854152E+00
  0.544249258E+00  0.114345644E+01
   s   1
  0.168714478E+00  0.100000000E+01
   p   3
  0.786827235E+01  0.689990666E-01
  0.188128854E+01  0.316423961E+00
  0.544249258E+00  0.744308291E+00
   p   1
  0.168714478E+00  0.100000000E+01
   d   1
  0.800000000E+00  0.100000000E+01
 
  12
   s   3
  0.187311370E+02  0.334946043E-01
  0.282539437E+01  0.234726954E+00
  0.640121692E+00  0.813757326E+00
   s   1
  0.161277759E+00  0.100000000E+01
   p   1
  0.110000000E+01  0.100000000E+01
 
  13
   s   3
  0.187311370E+02  0.334946043E-01
  0.282539437E+01  0.234726954E+00
  0.640121692E+00  0.813757326E+00
   s   1
  0.161277759E+00  0.100000000E+01
   p   1
  0.110000000E+01  0.100000000E+01
 
  14
   s   3
  0.187311370E+02  0.334946043E-01
  0.282539437E+01  0.234726954E+00
  0.640121692E+00  0.813757326E+00
   s   1
  0.161277759E+00  0.100000000E+01
   p   1
  0.110000000E+01  0.100000000E+01
 
  15
   s   3
  0.187311370E+02  0.334946043E-01
  0.282539437E+01  0.234726954E+00
  0.640121692E+00  0.813757326E+00
   s   1
  0.161277759E+00  0.100000000E+01
   p   1
  0.110000000E+01  0.100000000E+01
 
[MO]
Sym=     1a  
Ene=   -20.6290
Spin= Alpha
Occup=    1.00000
   1        -0.00001310
   2        -0.00006039
   3         0.00033491
   4        -0.00003331
   5        -0.00001665
   6         0.00000001
   7         0.00011807
   8         0.00012633
   9        -0.00000034
  10        -0.00010498
  11         0.00010154
  12        -0.00006354
  13         0.00006751
  14         0.00000014
  15        -0.00000008
  16        -0.00001463
  17         0.00042709
  18        -0.00104781
  19        -0.00015323
  20         0.00007713
  21         0.00000037
  22        -0.00061817
  23         0.00031390
  24         0.00000165
  25        -0.00080386
  26        -0.00022441
  27        -0.00003765
  28         0.00046311
  29         0.00000244
  30        -0.00000127
  31        -0.00001189
  32        -0.00005339
  33         0.00031633
  34        -0.00000591
  35         0.00003609
  36         0.00000001
  37        -0.00001825
  38        -0.00020397
  39        -0.00000024
  40        -0.00002990
  41         0.00002333
  42        -0.00005898
  43         0.00013905
  44         0.00000005
  45        -0.00000022
  46         0.00001459
  47         0.00006473
  48        -0.00024038
  49         0.00002909
  50        -0.00001737
  51        -0.00000007
  52         0.00012705
  53         0.00052262
  54         0.00000042
  55         0.00005219
  56        -0.00000109
  57         0.00002659
  58        -0.00001427
  59        -0.00000005
  60        -0.00000004
  61        -0.00000423
  62        -0.00003032
  63         0.00069511
  64         0.00001325
  65         0.00000054
  66        -0.00000005
  67         0.00031417
  68        -0.00018279
  69         0.00000011
  70         0.00001424
  71        -0.00000880
  72        -0.00000147
  73        -0.00001530
  74         0.00000003
  75        -0.00000001
  76         0.00000879
  77         0.00005382
  78        -0.00046917
  79         0.00002990
  80        -0.00000898
  81        -0.00000008
  82        -0.00024781
  83        -0.00032402
  84         0.00000043
  85        -0.00000429
  86         0.00001421
  87         0.00001954
  88        -0.00004278
  89         0.00000009
  90         0.00000005
  91         0.99464494
  92         0.02108045
  93         0.00511391
  94        -0.00152675
  95         0.00078063
  96         0.00000418
  97        -0.00016834
  98         0.00008371
  99         0.00000044
 100        -0.00366288
 101        -0.00403138
 102        -0.00417434
 103        -0.00029135
 104        -0.00000159
 105         0.00000082
 106         0.00001498
 107         0.00006897
 108        -0.00044504
 109         0.00000221
 110        -0.00000709
 111         0.00000001
 112        -0.00001739
 113         0.00009410
 114        -0.00000003
 115         0.00004243
 116         0.00003798
 117         0.00004035
 118         0.00000169
 119        -0.00000000
 120         0.00000001
 121        -0.00004174
 122        -0.00001747
 123         0.00001615
 124        -0.00004582
 125        -0.00000002
 126        -0.00003710
 127        -0.00002754
 128         0.00004809
 129         0.00001330
 130        -0.00000008
 131         0.00000123
 132         0.00000728
 133         0.00006500
 134         0.00000050
 135         0.00000070
 136         0.00000002
 137         0.00001142
 138        -0.00000800
 139         0.00000005
 140        -0.00000333
 141         0.00000201
 142         0.00000244
 143         0.00000457
 144         0.00000000
 145        -0.00000002
 146        -0.00000612
 147        -0.00012678
 148         0.00000494
 149         0.00001126
 150        -0.00000002
 151        -0.00000224
 152         0.00000478
 153         0.00000108
 154        -0.00000185
 155         0.00000000
 156         0.00000180
 157        -0.00000521
 158         0.00000087
 159        -0.00000001
 160         0.00000128
 161         0.00000179
 162        -0.00000527
 163         0.00000086
 164         0.00000001
 165        -0.00000129
Sym=     1a  
Ene=   -20.6290
Spin= Beta
Occup=    1.00000
   1        -0.00001310
   2        -0.00006039
   3         0.00033491
   4        -0.00003331
   5        -0.00001665
   6         0.00000001
   7         0.00011807
   8         0.00012633
   9        -0.00000034
  10        -0.00010498
  11         0.00010154
  12        -0.00006354
  13         0.00006751
  14         0.00000014
  15        -0.00000008
  16        -0.00001463
  17         0.00042709
  18        -0.00104781
  19        -0.00015323
  20         0.00007713
  21         0.00000037
  22        -0.00061817
  23         0.00031390
  24         0.00000165
  25        -0.00080386
  26        -0.00022441
  27        -0.00003765
  28         0.00046311
  29         0.00000244
  30        -0.00000127
  31        -0.00001189
  32        -0.00005339
  33         0.00031633
  34        -0.00000591
  35         0.00003609
  36         0.00000001
  37        -0.00001825
  38        -0.00020397
  39        -0.00000024
  40        -0.00002990
  41         0.00002333
  42        -0.00005898
  43         0.00013905
  44         0.00000005
  45        -0.00000022
  46         0.00001459
  47         0.00006473
  48        -0.00024038
  49         0.00002909
  50        -0.00001737
  51        -0.00000007
  52         0.00012705
  53         0.00052262
  54         0.00000042
  55         0.00005219
  56        -0.00000109
  57         0.00002659
  58        -0.00001427
  59        -0.00000005
  60        -0.00000004
  61        -0.00000423
  62        -0.00003032
  63         0.00069511
  64         0.00001325
  65         0.00000054
  66        -0.00000005
  67         0.00031417
  68        -0.00018279
  69         0.00000011
  70         0.00001424
  71        -0.00000880
  72        -0.00000147
  73        -0.00001530
  74         0.00000003
  75        -0.00000001
  76         0.00000879
  77         0.00005382
  78        -0.00046917
  79         0.00002990
  80        -0.00000898
  81        -0.00000008
  82        -0.00024781
  83        -0.00032402
  84         0.00000043
  85        -0.00000429
  86         0.00001421
  87         0.00001954
  88        -0.00004278
  89         0.00000009
  90         0.00000005
  91         0.99464494
  92         0.02108045
  93         0.00511391
  94        -0.00152675
  95         0.00078063
  96         0.00000418
  97        -0.00016834
  98         0.00008371
  99         0.00000044
 100        -0.00366288
 101        -0.00403138
 102        -0.00417434
 103        -0.00029135
 104        -0.00000159
 105         0.00000082
 106         0.00001498
 107         0.00006897
 108        -0.00044504
 109         0.00000221
 110        -0.00000709
 111         0.00000001
 112        -0.00001739
 113         0.00009410
 114        -0.00000003
 115         0.00004243
 116         0.00003798
 117         0.00004035
 118         0.00000169
 119        -0.00000000
 120         0.00000001
 121        -0.00004174
 122        -0.00001747
 123         0.00001615
 124        -0.00004582
 125        -0.00000002
 126        -0.00003710
 127        -0.00002754
 128         0.00004809
 129         0.00001330
 130        -0.00000008
 131         0.00000123
 132         0.00000728
 133         0.00006500
 134         0.00000050
 135         0.00000070
 136         0.00000002
 137         0.00001142
 138        -0.00000800
 139         0.00000005
 140        -0.00000333
 141         0.00000201
 142         0.00000244
 143         0.00000457
 144         0.00000000
 145        -0.00000002
 146        -0.00000612
 147        -0.00012678
 148         0.00000494
 149         0.00001126
 150        -0.00000002
 151        -0.00000224
 152         0.00000478
 153         0.00000108
 154        -0.00000185
 155         0.00000000
 156         0.00000180
 157        -0.00000521
 158         0.00000087
 159        -0.00000001
 160         0.00000128
 161         0.00000179
 162        -0.00000527
 163         0.00000086
 164         0.00000001
 165        -0.00000129
Sym=     2a  
Ene=   -20.5550
Spin= Alpha
Occup=    1.00000
   1        -0.00000123
   2        -0.00000328
   3         0.00019070
   4         0.00000201
   5         0.00000639
   6         0.00000009
   7         0.00006012
   8         0.00003680
   9        -0.00000005
  10        -0.00002341
  11         0.00000881
  12         0.00000587
  13         0.00000378
  14         0.00000007
  15        -0.00000002
  16         0.00001252
  17         0.00005281
  18         0.00002115
  19        -0.00000279
  20         0.00003524
  21         0.00000011
  22         0.00037423
  23        -0.00001866
  24        -0.00000088
  25         0.00000181
  26         0.00005324
  27         0.00002215
  28         0.00001607
  29         0.00000006
  30         0.00000001
  31        -0.00001111
  32        -0.00004587
  33         0.00020248
  34         0.00004133
  35        -0.00003282
  36        -0.00000004
  37        -0.00015214
  38         0.00021859
  39         0.00000065
  40         0.00007305
  41        -0.00010227
  42        -0.00005795
  43         0.00006169
  44        -0.00000022
  45        -0.00000016
  46        -0.00001388
  47         0.00040604
  48        -0.00079257
  49         0.00000476
  50        -0.00016738
  51        -0.00000006
  52        -0.00022435
  53        -0.00092855
  54        -0.00000057
  55        -0.00003079
  56        -0.00093524
  57        -0.00004612
  58        -0.00000400
  59        -0.00000001
  60        -0.00000067
  61        -0.00000185
  62        -0.00001023
  63        -0.00018306
  64        -0.00000240
  65        -0.00002686
  66         0.00000003
  67        -0.00018907
  68         0.00015190
  69        -0.00000005
  70         0.00006998
  71        -0.00007523
  72        -0.00002090
  73        -0.00003627
  74         0.00000000
  75        -0.00000005
  76         0.00000207
  77         0.00002782
  78         0.00009323
  79        -0.00000429
  80         0.00002379
  81         0.00000007
  82        -0.00001645
  83         0.00001097
  84        -0.00000003
  85        -0.00000993
  86         0.00000776
  87         0.00000382
  88        -0.00004109
  89         0.00000000
  90        -0.00000001
  91         0.00001299
  92         0.00006127
  93        -0.00037798
  94        -0.00000622
  95         0.00000304
  96         0.00000005
  97         0.00007084
  98        -0.00006027
  99        -0.00000019
 100         0.00003278
 101         0.00003580
 102         0.00003694
 103         0.00000391
 104         0.00000001
 105        -0.00000001
 106         0.99463117
 107         0.02106159
 108         0.00527734
 109         0.00001992
 110        -0.00165391
 111        -0.00000120
 112         0.00000205
 113        -0.00020047
 114        -0.00000007
 115        -0.00411696
 116        -0.00359860
 117        -0.00423317
 118         0.00000959
 119        -0.00000011
 120         0.00000045
 121        -0.00000995
 122        -0.00000480
 123        -0.00000218
 124        -0.00000505
 125         0.00000000
 126        -0.00004161
 127        -0.00004117
 128         0.00003171
 129         0.00002433
 130        -0.00000006
 131         0.00000351
 132         0.00001901
 133        -0.00011292
 134         0.00000149
 135         0.00002230
 136         0.00000000
 137        -0.00014423
 138        -0.00004595
 139        -0.00000059
 140        -0.00000227
 141        -0.00000085
 142         0.00000568
 143         0.00002137
 144        -0.00000004
 145         0.00000007
 146         0.00000762
 147        -0.00000952
 148         0.00001073
 149         0.00000593
 150        -0.00000001
 151        -0.00001275
 152        -0.00007366
 153        -0.00000491
 154        -0.00000808
 155        -0.00000001
 156         0.00002354
 157        -0.00000970
 158         0.00000841
 159         0.00000809
 160        -0.00000054
 161         0.00002356
 162        -0.00000994
 163         0.00000838
 164         0.00000810
 165         0.00000057
Sym=     2a  
Ene=   -20.5550
Spin= Beta
Occup=    1.00000
   1        -0.00000123
   2        -0.00000328
   3         0.00019070
   4         0.00000201
   5         0.00000639
   6         0.00000009
   7         0.00006012
   8         0.00003680
   9        -0.00000005
  10        -0.00002341
  11         0.00000881
  12         0.00000587
  13         0.00000378
  14         0.00000007
  15        -0.00000002
  16         0.00001252
  17         0.00005281
  18         0.00002115
  19        -0.00000279
  20         0.00003524
  21         0.00000011
  22         0.00037423
  23        -0.00001866
  24        -0.00000088
  25         0.00000181
  26         0.00005324
  27         0.00002215
  28         0.00001607
  29         0.00000006
  30         0.00000001
  31        -0.00001111
  32        -0.00004587
  33         0.00020248
  34         0.00004133
  35        -0.00003282
  36        -0.00000004
  37        -0.00015214
  38         0.00021859
  39         0.00000065
  40         0.00007305
  41        -0.00010227
  42        -0.00005795
  43         0.00006169
  44        -0.00000022
  45        -0.00000016
  46        -0.00001388
  47         0.00040604
  48        -0.00079257
  49         0.00000476
  50        -0.00016738
  51        -0.00000006
  52        -0.00022435
  53        -0.00092855
  54        -0.00000057
  55        -0.00003079
  56        -0.00093524
  57        -0.00004612
  58        -0.00000400
  59        -0.00000001
  60        -0.00000067
  61        -0.00000185
  62        -0.00001023
  63        -0.00018306
  64        -0.00000240
  65        -0.00002686
  66         0.00000003
  67        -0.00018907
  68         0.00015190
  69        -0.00000005
  70         0.00006998
  71        -0.00007523
  72        -0.00002090
  73        -0.00003627
  74         0.00000000
  75        -0.00000005
  76         0.00000207
  77         0.00002782
  78         0.00009323
  79        -0.00000429
  80         0.00002379
  81         0.00000007
  82        -0.00001645
  83         0.00001097
  84        -0.00000003
  85        -0.00000993
  86         0.00000776
  87         0.00000382
  88        -0.00004109
  89         0.00000000
  90        -0.00000001
  91         0.00001299
  92         0.00006127
  93        -0.00037798
  94        -0.00000622
  95         0.00000304
  96         0.00000005
  97         0.00007084
  98        -0.00006027
  99        -0.00000019
 100         0.00003278
 101         0.00003580
 102         0.00003694
 103         0.00000391
 104         0.00000001
 105        -0.00000001
 106         0.99463117
 107         0.02106159
 108         0.00527734
 109         0.00001992
 110        -0.00165391
 111        -0.00000120
 112         0.00000205
 113        -0.00020047
 114        -0.00000007
 115        -0.00411696
 116        -0.00359860
 117        -0.00423317
 118         0.00000959
 119        -0.00000011
 120         0.00000045
 121        -0.00000995
 122        -0.00000480
 123        -0.00000218
 124        -0.00000505
 125         0.00000000
 126        -0.00004161
 127        -0.00004117
 128         0.00003171
 129         0.00002433
 130        -0.00000006
 131         0.00000351
 132         0.00001901
 133        -0.00011292
 134         0.00000149
 135         0.00002230
 136         0.00000000
 137        -0.00014423
 138        -0.00004595
 139        -0.00000059
 140        -0.00000227
 141        -0.00000085
 142         0.00000568
 143         0.00002137
 144        -0.00000004
 145         0.00000007
 146         0.00000762
 147        -0.00000952
 148         0.00001073
 149         0.00000593
 150        -0.00000001
 151        -0.00001275
 152        -0.00007366
 153        -0.00000491
 154        -0.00000808
 155        -0.00000001
 156         0.00002354
 157        -0.00000970
 158         0.00000841
 159         0.00000809
 160        -0.00000054
 161         0.00002356
 162        -0.00000994
 163         0.00000838
 164         0.00000810
 165         0.00000057
Sym=     3a  
Ene=   -15.6370
Spin= Alpha
Occup=    1.00000
   1         0.99498281
   2         0.02553881
   3        -0.00493341
   4         0.00016902
   5         0.00010299
   6        -0.00000118
   7        -0.00035973
   8        -0.00160896
   9         0.00000116
  10        -0.00339888
  11        -0.00325982
  12        -0.00332971
  13        -0.00000685
  14         0.00000020
  15         0.00000009
  16         0.00001721
  17         0.00022261
  18         0.00179691
  19        -0.00022883
  20        -0.00011252
  21         0.00000041
  22        -0.00218368
  23        -0.00061443
  24         0.00000435
  25        -0.00012889
  26        -0.00010429
  27        -0.00006116
  28        -0.00008438
  29         0.00000013
  30         0.00000027
  31        -0.00152118
  32        -0.00002554
  33        -0.00070949
  34        -0.00002528
  35         0.00005134
  36         0.00000010
  37         0.00088881
  38        -0.00005250
  39        -0.00000168
  40         0.00006274
  41         0.00005175
  42        -0.00000901
  43        -0.00001607
  44        -0.00000023
  45         0.00000018
  46        -0.00000366
  47        -0.00003656
  48         0.00144838
  49         0.00001796
  50        -0.00002437
  51         0.00000001
  52        -0.00014650
  53        -0.00094488
  54        -0.00000141
  55         0.00001958
  56         0.00001439
  57        -0.00000936
  58         0.00001052
  59        -0.00000007
  60         0.00000009
  61         0.00002743
  62         0.00013601
  63        -0.00217439
  64         0.00002919
  65         0.00002997
  66        -0.00000002
  67        -0.00160421
  68         0.00071687
  69         0.00000014
  70         0.00000896
  71        -0.00000514
  72         0.00003110
  73         0.00003481
  74        -0.00000004
  75        -0.00000012
  76         0.00000962
  77         0.00013312
  78         0.00278204
  79         0.00018414
  80        -0.00010570
  81        -0.00000037
  82         0.00173310
  83         0.00081001
  84        -0.00000263
  85        -0.00006143
  86        -0.00004975
  87        -0.00008442
  88         0.00006332
  89        -0.00000011
  90        -0.00000008
  91        -0.00002817
  92        -0.00016787
  93         0.00099752
  94         0.00001921
  95        -0.00003239
  96        -0.00000003
  97         0.00001818
  98         0.00042019
  99         0.00000035
 100        -0.00014810
 101        -0.00002111
 102        -0.00012511
 103        -0.00004548
 104         0.00000001
 105         0.00000021
 106        -0.00001478
 107        -0.00006347
 108         0.00042446
 109        -0.00000993
 110         0.00000754
 111        -0.00000002
 112         0.00005601
 113        -0.00005204
 114         0.00000026
 115        -0.00003520
 116        -0.00004684
 117        -0.00004494
 118        -0.00001221
 119        -0.00000002
 120        -0.00000004
 121         0.00010506
 122        -0.00001246
 123         0.00001143
 124        -0.00015000
 125        -0.00000009
 126        -0.00010390
 127         0.00000004
 128        -0.00000546
 129         0.00000739
 130         0.00000000
 131        -0.00000556
 132        -0.00000347
 133        -0.00056300
 134        -0.00002498
 135         0.00002180
 136        -0.00000014
 137        -0.00013765
 138         0.00006828
 139        -0.00000094
 140        -0.00000777
 141        -0.00002140
 142        -0.00002489
 143        -0.00000214
 144        -0.00000011
 145         0.00000008
 146         0.00001679
 147         0.00046263
 148        -0.00005263
 149         0.00002045
 150         0.00000009
 151        -0.00000238
 152         0.00005063
 153         0.00000451
 154         0.00000594
 155         0.00000006
 156         0.00001077
 157         0.00001500
 158        -0.00000652
 159         0.00000136
 160        -0.00000900
 161         0.00001067
 162         0.00001501
 163        -0.00000649
 164         0.00000131
 165         0.00000901
Sym=     3a  
Ene=   -15.6370
Spin= Beta
Occup=    1.00000
   1         0.99498281
   2         0.02553881
   3        -0.00493341
   4         0.00016902
   5         0.00010299
   6        -0.00000118
   7        -0.00035973
   8        -0.00160896
   9         0.00000116
  10        -0.00339888
  11        -0.00325982
  12        -0.00332971
  13        -0.00000685
  14         0.00000020
  15         0.00000009
  16         0.00001721
  17         0.00022261
  18         0.00179691
  19        -0.00022883
  20        -0.00011252
  21         0.00000041
  22        -0.00218368
  23        -0.00061443
  24         0.00000435
  25        -0.00012889
  26        -0.00010429
  27        -0.00006116
  28        -0.00008438
  29         0.00000013
  30         0.00000027
  31        -0.00152118
  32        -0.00002554
  33        -0.00070949
  34        -0.00002528
  35         0.00005134
  36         0.00000010
  37         0.00088881
  38        -0.00005250
  39        -0.00000168
  40         0.00006274
  41         0.00005175
  42        -0.00000901
  43        -0.00001607
  44        -0.00000023
  45         0.00000018
  46        -0.00000366
  47        -0.00003656
  48         0.00144838
  49         0.00001796
  50        -0.00002437
  51         0.00000001
  52        -0.00014650
  53        -0.00094488
  54        -0.00000141
  55         0.00001958
  56         0.00001439
  57        -0.00000936
  58         0.00001052
  59        -0.00000007
  60         0.00000009
  61         0.00002743
  62         0.00013601
  63        -0.00217439
  64         0.00002919
  65         0.00002997
  66        -0.00000002
  67        -0.00160421
  68         0.00071687
  69         0.00000014
  70         0.00000896