[Molden Format]
[N_Atoms]
                   15
[Atoms] (AU)
N1          1      7           0.30414744     -3.12360778      0.00000039
C2          2      6           2.54211672     -1.83855068     -0.00000503
N3          3      7           2.25827074      0.73262253      0.00000001
C4          4      6           0.01663964      2.09395426      0.00000376
C5          5      6          -2.29240599      0.54853951     -0.00000096
C6          6      6          -2.02180350     -1.95096152      0.00000013
O7          7      8           4.55898020     -2.86756312      0.00000120
O8          8      8           0.04936084      4.35263738     -0.00000063
H9          9      1           0.44125338     -4.99608049      0.00000062
H10        10      1           3.85167326      1.73694695      0.00000056
C11        11      6          -4.79222089      1.89418249     -0.00000032
H12        12      1          -3.60980920     -3.21208236      0.00000136
H13        13      1          -6.34142196      0.55384596     -0.00000051
H14        14      1          -4.96970637      3.09704430      1.64900985
H15        15      1          -4.96970631      3.09704441     -1.64901039
[Charge] (Mulliken)
   0.0000000000000000     
   0.0000000000000000     
   0.0000000000000000     
   0.0000000000000000     
   0.0000000000000000     
   0.0000000000000000     
   0.0000000000000000     
   0.0000000000000000     
   0.0000000000000000     
   0.0000000000000000     
   0.0000000000000000     
   0.0000000000000000     
   0.0000000000000000     
   0.0000000000000000     
   0.0000000000000000     
[GTO] (AU)
   1
   s   6
  0.417351146E+04  0.183477216E-02
  0.627457911E+03  0.139946270E-01
  0.142902093E+03  0.685865518E-01
  0.402343293E+02  0.232240873E+00
  0.128202129E+02  0.469069948E+00
  0.439043701E+01  0.360455199E+00
   s   3
  0.116263619E+02 -0.114961182E+00
  0.271627981E+01 -0.169117479E+00
  0.772218397E+00  0.114585195E+01
   s   1
  0.212031497E+00  0.100000000E+01
   p   3
  0.116263619E+02  0.675797439E-01
  0.271627981E+01  0.323907296E+00
  0.772218397E+00  0.740895140E+00
   p   1
  0.212031497E+00  0.100000000E+01
   d   1
  0.800000000E+00  0.100000000E+01
 
   2
   s   6
  0.304752488E+04  0.183473713E-02
  0.457369518E+03  0.140373228E-01
  0.103948685E+03  0.688426223E-01
  0.292101553E+02  0.232184443E+00
  0.928666296E+01  0.467941348E+00
  0.316392696E+01  0.362311985E+00
   s   3
  0.786827235E+01 -0.119332420E+00
  0.188128854E+01 -0.160854152E+00
  0.544249258E+00  0.114345644E+01
   s   1
  0.168714478E+00  0.100000000E+01
   p   3
  0.786827235E+01  0.689990666E-01
  0.188128854E+01  0.316423961E+00
  0.544249258E+00  0.744308291E+00
   p   1
  0.168714478E+00  0.100000000E+01
   d   1
  0.800000000E+00  0.100000000E+01
 
   3
   s   6
  0.417351146E+04  0.183477216E-02
  0.627457911E+03  0.139946270E-01
  0.142902093E+03  0.685865518E-01
  0.402343293E+02  0.232240873E+00
  0.128202129E+02  0.469069948E+00
  0.439043701E+01  0.360455199E+00
   s   3
  0.116263619E+02 -0.114961182E+00
  0.271627981E+01 -0.169117479E+00
  0.772218397E+00  0.114585195E+01
   s   1
  0.212031497E+00  0.100000000E+01
   p   3
  0.116263619E+02  0.675797439E-01
  0.271627981E+01  0.323907296E+00
  0.772218397E+00  0.740895140E+00
   p   1
  0.212031497E+00  0.100000000E+01
   d   1
  0.800000000E+00  0.100000000E+01
 
   4
   s   6
  0.304752488E+04  0.183473713E-02
  0.457369518E+03  0.140373228E-01
  0.103948685E+03  0.688426223E-01
  0.292101553E+02  0.232184443E+00
  0.928666296E+01  0.467941348E+00
  0.316392696E+01  0.362311985E+00
   s   3
  0.786827235E+01 -0.119332420E+00
  0.188128854E+01 -0.160854152E+00
  0.544249258E+00  0.114345644E+01
   s   1
  0.168714478E+00  0.100000000E+01
   p   3
  0.786827235E+01  0.689990666E-01
  0.188128854E+01  0.316423961E+00
  0.544249258E+00  0.744308291E+00
   p   1
  0.168714478E+00  0.100000000E+01
   d   1
  0.800000000E+00  0.100000000E+01
 
   5
   s   6
  0.304752488E+04  0.183473713E-02
  0.457369518E+03  0.140373228E-01
  0.103948685E+03  0.688426223E-01
  0.292101553E+02  0.232184443E+00
  0.928666296E+01  0.467941348E+00
  0.316392696E+01  0.362311985E+00
   s   3
  0.786827235E+01 -0.119332420E+00
  0.188128854E+01 -0.160854152E+00
  0.544249258E+00  0.114345644E+01
   s   1
  0.168714478E+00  0.100000000E+01
   p   3
  0.786827235E+01  0.689990666E-01
  0.188128854E+01  0.316423961E+00
  0.544249258E+00  0.744308291E+00
   p   1
  0.168714478E+00  0.100000000E+01
   d   1
  0.800000000E+00  0.100000000E+01
 
   6
   s   6
  0.304752488E+04  0.183473713E-02
  0.457369518E+03  0.140373228E-01
  0.103948685E+03  0.688426223E-01
  0.292101553E+02  0.232184443E+00
  0.928666296E+01  0.467941348E+00
  0.316392696E+01  0.362311985E+00
   s   3
  0.786827235E+01 -0.119332420E+00
  0.188128854E+01 -0.160854152E+00
  0.544249258E+00  0.114345644E+01
   s   1
  0.168714478E+00  0.100000000E+01
   p   3
  0.786827235E+01  0.689990666E-01
  0.188128854E+01  0.316423961E+00
  0.544249258E+00  0.744308291E+00
   p   1
  0.168714478E+00  0.100000000E+01
   d   1
  0.800000000E+00  0.100000000E+01
 
   7
   s   6
  0.548467166E+04  0.183107443E-02
  0.825234946E+03  0.139501722E-01
  0.188046958E+03  0.684450781E-01
  0.529645000E+02  0.232714336E+00
  0.168975704E+02  0.470192898E+00
  0.579963534E+01  0.358520853E+00
   s   3
  0.155396162E+02 -0.110777550E+00
  0.359993359E+01 -0.148026263E+00
  0.101376175E+01  0.113076702E+01
   s   1
  0.270005823E+00  0.100000000E+01
   p   3
  0.155396162E+02  0.708742682E-01
  0.359993359E+01  0.339752839E+00
  0.101376175E+01  0.727158577E+00
   p   1
  0.270005823E+00  0.100000000E+01
   d   1
  0.800000000E+00  0.100000000E+01
 
   8
   s   6
  0.548467166E+04  0.183107443E-02
  0.825234946E+03  0.139501722E-01
  0.188046958E+03  0.684450781E-01
  0.529645000E+02  0.232714336E+00
  0.168975704E+02  0.470192898E+00
  0.579963534E+01  0.358520853E+00
   s   3
  0.155396162E+02 -0.110777550E+00
  0.359993359E+01 -0.148026263E+00
  0.101376175E+01  0.113076702E+01
   s   1
  0.270005823E+00  0.100000000E+01
   p   3
  0.155396162E+02  0.708742682E-01
  0.359993359E+01  0.339752839E+00
  0.101376175E+01  0.727158577E+00
   p   1
  0.270005823E+00  0.100000000E+01
   d   1
  0.800000000E+00  0.100000000E+01
 
   9
   s   3
  0.187311370E+02  0.334946043E-01
  0.282539437E+01  0.234726954E+00
  0.640121692E+00  0.813757326E+00
   s   1
  0.161277759E+00  0.100000000E+01
   p   1
  0.110000000E+01  0.100000000E+01
 
  10
   s   3
  0.187311370E+02  0.334946043E-01
  0.282539437E+01  0.234726954E+00
  0.640121692E+00  0.813757326E+00
   s   1
  0.161277759E+00  0.100000000E+01
   p   1
  0.110000000E+01  0.100000000E+01
 
  11
   s   6
  0.304752488E+04  0.183473713E-02
  0.457369518E+03  0.140373228E-01
  0.103948685E+03  0.688426223E-01
  0.292101553E+02  0.232184443E+00
  0.928666296E+01  0.467941348E+00
  0.316392696E+01  0.362311985E+00
   s   3
  0.786827235E+01 -0.119332420E+00
  0.188128854E+01 -0.160854152E+00
  0.544249258E+00  0.114345644E+01
   s   1
  0.168714478E+00  0.100000000E+01
   p   3
  0.786827235E+01  0.689990666E-01
  0.188128854E+01  0.316423961E+00
  0.544249258E+00  0.744308291E+00
   p   1
  0.168714478E+00  0.100000000E+01
   d   1
  0.800000000E+00  0.100000000E+01
 
  12
   s   3
  0.187311370E+02  0.334946043E-01
  0.282539437E+01  0.234726954E+00
  0.640121692E+00  0.813757326E+00
   s   1
  0.161277759E+00  0.100000000E+01
   p   1
  0.110000000E+01  0.100000000E+01
 
  13
   s   3
  0.187311370E+02  0.334946043E-01
  0.282539437E+01  0.234726954E+00
  0.640121692E+00  0.813757326E+00
   s   1
  0.161277759E+00  0.100000000E+01
   p   1
  0.110000000E+01  0.100000000E+01
 
  14
   s   3
  0.187311370E+02  0.334946043E-01
  0.282539437E+01  0.234726954E+00
  0.640121692E+00  0.813757326E+00
   s   1
  0.161277759E+00  0.100000000E+01
   p   1
  0.110000000E+01  0.100000000E+01
 
  15
   s   3
  0.187311370E+02  0.334946043E-01
  0.282539437E+01  0.234726954E+00
  0.640121692E+00  0.813757326E+00
   s   1
  0.161277759E+00  0.100000000E+01
   p   1
  0.110000000E+01  0.100000000E+01
 
[MO]
Sym=     1a  
Ene=   -20.6880
Spin= Alpha
Occup=    2.00000
   1        -0.00000861
   2        -0.00001883
   3        -0.00001960
   4        -0.00003848
   5        -0.00000256
   6        -0.00000000
   7        -0.00002233
   8        -0.00000148
   9        -0.00000000
  10        -0.00000000
  11        -0.00000000
  12        -0.00000000
  13        -0.00000000
  14        -0.00000000
  15         0.00000000
  16        -0.00005107
  17        -0.00024665
  18        -0.00027352
  19        -0.00031873
  20         0.00016496
  21        -0.00000000
  22        -0.00019905
  23         0.00010302
  24        -0.00000000
  25         0.00000000
  26         0.00000000
  27         0.00000000
  28        -0.00000000
  29         0.00000000
  30        -0.00000000
  31         0.00000106
  32         0.00003782
  33         0.00003969
  34        -0.00008234
  35         0.00013709
  36        -0.00000000
  37        -0.00004779
  38         0.00007956
  39        -0.00000000
  40         0.00000000
  41         0.00000000
  42        -0.00000000
  43        -0.00000000
  44        -0.00000000
  45        -0.00000000
  46         0.00011691
  47         0.00075674
  48         0.00084002
  49         0.00001550
  50         0.00109882
  51        -0.00000000
  52         0.00000968
  53         0.00068621
  54        -0.00000000
  55        -0.00000000
  56        -0.00000000
  57         0.00000000
  58         0.00000000
  59        -0.00000000
  60        -0.00000000
  61        -0.00003818
  62         0.00004889
  63         0.00005524
  64         0.00005633
  65         0.00009538
  66        -0.00000000
  67         0.00003518
  68         0.00005956
  69        -0.00000000
  70         0.00000000
  71         0.00000000
  72        -0.00000000
  73         0.00000000
  74         0.00000000
  75         0.00000000
  76        -0.00001465
  77        -0.00000091
  78        -0.00000070
  79        -0.00000035
  80         0.00000276
  81        -0.00000000
  82        -0.00000022
  83         0.00000172
  84        -0.00000000
  85         0.00000000
  86         0.00000000
  87         0.00000000
  88         0.00000000
  89         0.00000000
  90        -0.00000000
  91        -0.30962714
  92        -0.00579771
  93         0.00093428
  94         0.00000700
  95        -0.00000364
  96         0.00000000
  97         0.00000474
  98        -0.00000246
  99         0.00000000
 100         0.00000000
 101         0.00000000
 102         0.00000000
 103         0.00000000
 104         0.00000000
 105         0.00000000
 106         0.94645219
 107         0.01772133
 108        -0.00285663
 109        -0.00000028
 110        -0.00002308
 111         0.00000000
 112        -0.00000019
 113        -0.00001563
 114         0.00000000
 115        -0.00000000
 116        -0.00000000
 117        -0.00000000
 118         0.00000000
 119         0.00000000
 120        -0.00000000
 121        -0.00001079
 122        -0.00001205
 123        -0.00000000
 124        -0.00000000
 125        -0.00000000
 126         0.00002303
 127         0.00002572
 128        -0.00000000
 129         0.00000000
 130        -0.00000000
 131         0.00000416
 132         0.00001178
 133         0.00001302
 134         0.00002589
 135         0.00001303
 136        -0.00000000
 137         0.00001617
 138         0.00000814
 139        -0.00000000
 140         0.00000000
 141         0.00000000
 142         0.00000000
 143         0.00000000
 144        -0.00000000
 145        -0.00000000
 146        -0.00000038
 147        -0.00000043
 148        -0.00000000
 149        -0.00000000
 150         0.00000000
 151         0.00000018
 152         0.00000020
 153        -0.00000000
 154        -0.00000000
 155         0.00000000
 156         0.00000955
 157         0.00001067
 158        -0.00000000
 159         0.00000000
 160         0.00000000
 161         0.00000955
 162         0.00001067
 163         0.00000000
 164         0.00000000
 165        -0.00000000
Sym=     2a  
Ene=   -20.6880
Spin= Alpha
Occup=    2.00000
   1        -0.00002304
   2         0.00005116
   3         0.00005415
   4         0.00011804
   5         0.00000351
   6         0.00000000
   7         0.00006850
   8         0.00000204
   9         0.00000000
  10         0.00000000
  11         0.00000000
  12         0.00000000
  13        -0.00000000
  14        -0.00000000
  15         0.00000000
  16         0.00009971
  17         0.00075130
  18         0.00083433
  19         0.00097327
  20        -0.00049584
  21         0.00000000
  22         0.00060780
  23        -0.00030965
  24         0.00000000
  25        -0.00000000
  26         0.00000000
  27        -0.00000000
  28        -0.00000000
  29         0.00000000
  30         0.00000000
  31        -0.00002149
  32         0.00006861
  33         0.00007243
  34         0.00004531
  35        -0.00006174
  36         0.00000000
  37         0.00002630
  38        -0.00003583
  39         0.00000000
  40         0.00000000
  41        -0.00000000
  42         0.00000000
  43        -0.00000000
  44        -0.00000000
  45        -0.00000000
  46         0.00001992
  47         0.00024646
  48         0.00027397
  49         0.00000699
  50         0.00035834
  51        -0.00000000
  52         0.00000437
  53         0.00022378
  54        -0.00000000
  55        -0.00000000
  56         0.00000000
  57         0.00000000
  58        -0.00000000
  59        -0.00000000
  60         0.00000000
  61        -0.00001854
  62         0.00001465
  63         0.00001670
  64         0.00001765
  65         0.00003159
  66         0.00000000
  67         0.00001102
  68         0.00001973
  69         0.00000000
  70        -0.00000000
  71         0.00000000
  72        -0.00000000
  73        -0.00000000
  74         0.00000000
  75         0.00000000
  76        -0.00002472
  77        -0.00000138
  78        -0.00000101
  79         0.00000242
  80        -0.00000011
  81         0.00000000
  82         0.00000151
  83        -0.00000007
  84         0.00000000
  85         0.00000000
  86         0.00000000
  87         0.00000000
  88         0.00000000
  89        -0.00000000
  90        -0.00000000
  91         0.94645582
  92         0.01772047
  93        -0.00285753
  94        -0.00002015
  95         0.00001024
  96        -0.00000000
  97        -0.00001365
  98         0.00000694
  99        -0.00000000
 100         0.00000000
 101         0.00000000
 102         0.00000000
 103        -0.00000000
 104        -0.00000000
 105         0.00000000
 106         0.30962866
 107         0.00579688
 108        -0.00093510
 109        -0.00000018
 110        -0.00000703
 111         0.00000000
 112        -0.00000012
 113        -0.00000476
 114         0.00000000
 115        -0.00000000
 116        -0.00000000
 117        -0.00000000
 118         0.00000000
 119         0.00000000
 120         0.00000000
 121         0.00003218
 122         0.00003593
 123         0.00000000
 124        -0.00000000
 125        -0.00000000
 126         0.00004207
 127         0.00004698
 128        -0.00000000
 129         0.00000000
 130        -0.00000000
 131         0.00000130
 132         0.00000374
 133         0.00000414
 134         0.00000831
 135         0.00000435
 136        -0.00000000
 137         0.00000519
 138         0.00000271
 139        -0.00000000
 140        -0.00000000
 141         0.00000000
 142         0.00000000
 143        -0.00000000
 144        -0.00000000
 145        -0.00000000
 146        -0.00000050
 147        -0.00000056
 148        -0.00000000
 149         0.00000000
 150        -0.00000000
 151         0.00000003
 152         0.00000003
 153         0.00000000
 154         0.00000000
 155         0.00000000
 156         0.00000310
 157         0.00000346
 158         0.00000000
 159         0.00000000
 160         0.00000000
 161         0.00000310
 162         0.00000346
 163         0.00000000
 164        -0.00000000
 165         0.00000000
Sym=     3a  
Ene=   -15.6450
Spin= Alpha
Occup=    2.00000
   1         0.74843933
   2         0.01509980
   3         0.00153602
   4         0.00006488
   5         0.00014047
   6        -0.00000000
   7         0.00003765
   8         0.00008152
   9        -0.00000000
  10         0.00000000
  11         0.00000000
  12         0.00000000
  13         0.00000000
  14        -0.00000000
  15         0.00000000
  16         0.00156941
  17         0.00141643
  18         0.00154340
  19        -0.00104722
  20         0.00039818
  21         0.00000000
  22        -0.00065399
  23         0.00024866
  24         0.00000000
  25        -0.00000000
  26        -0.00000000
  27        -0.00000000
  28         0.00000000
  29         0.00000000
  30        -0.00000000
  31         0.65449596
  32         0.01322320
  33         0.00136285
  34        -0.00008343
  35        -0.00015264
  36         0.00000000
  37        -0.00004842
  38        -0.00008859
  39         0.00000000
  40         0.00000000
  41         0.00000000
  42         0.00000000
  43         0.00000000
  44        -0.00000000
  45        -0.00000000
  46         0.00070885
  47         0.00066432
  48         0.00072445
  49         0.00078198
  50        -0.00054113
  51        -0.00000000
  52         0.00048835
  53        -0.00033794
  54        -0.00000000
  55         0.00000000
  56         0.00000000
  57         0.00000000
  58         0.00000000
  59        -0.00000000
  60        -0.00000000
  61         0.00002853
  62         0.00014669
  63         0.00016271
  64         0.00023111
  65        -0.00012952
  66         0.00000000
  67         0.00014433
  68        -0.00008089
  69         0.00000000
  70         0.00000000
  71        -0.00000000
  72         0.00000000
  73         0.00000000
  74        -0.00000000
  75         0.00000000
  76         0.00086719
  77         0.00077533
  78         0.00084466
  79         0.00100897
  80        -0.00043641
  81         0.00000000
  82         0.00063010
  83        -0.00027254
  84         0.00000000
  85         0.00000000
  86         0.00000000
  87        -0.00000000
  88         0.00000000
  89         0.00000000
  90         0.00000000
  91        -0.00007026
  92         0.00012437
  93         0.00011992
  94        -0.00017498
  95         0.00007886
  96        -0.00000000
  97        -0.00011852
  98         0.00005341
  99        -0.00000000
 100        -0.00000000
 101        -0.00000000
 102        -0.00000000
 103        -0.00000000
 104         0.00000000
 105        -0.00000000
 106        -0.00003003
 107         0.00006069
 108         0.00005843
 109         0.00005985
 110        -0.00009328
 111         0.00000000
 112         0.00004054
 113        -0.00006318
 114         0.00000000
 115         0.00000000
 116         0.00000000
 117         0.00000000
 118         0.00000000
 119         0.00000000
 120        -0.00000000
 121         0.00099465
 122         0.00111057
 123         0.00000000
 124         0.00000000
 125         0.00000000
 126         0.00086571
 127         0.00096661
 128         0.00000000
 129        -0.00000000
 130        -0.00000000
 131        -0.00007414
 132        -0.00000309
 133        -0.00000186
 134         0.00000370
 135        -0.00000212
 136        -0.00000000
 137         0.00000231
 138        -0.00000132
 139        -0.00000000
 140         0.00000000
 141         0.00000000
 142         0.00000000
 143        -0.00000000
 144        -0.00000000
 145        -0.00000000
 146         0.00012872
 147         0.00014372
 148        -0.00000000
 149        -0.00000000
 150         0.00000000
 151        -0.00000118
 152        -0.00000132
 153         0.00000000
 154        -0.00000000
 155         0.00000000
 156        -0.00000120
 157        -0.00000134
 158        -0.00000000
 159        -0.00000000
 160        -0.00000000
 161        -0.00000120
 162        -0.00000134
 163         0.00000000
 164         0.00000000
 165        -0.00000000
Sym=     4a  
Ene=   -15.6430
Spin= Alpha
Occup=    2.00000
   1        -0.65464134
   2        -0.01305415
   3        -0.00118260
   4         0.00007147
   5         0.00014799
   6         0.00000000
   7         0.00004148
   8         0.00008589
   9         0.00000000
  10        -0.00000000
  11        -0.00000000
  12        -0.00000000
  13        -0.00000000
  14        -0.00000000
  15         0.00000000
  16         0.00008466
  17         0.00008889
  18         0.00009716
  19         0.00070478
  20         0.00154417
  21         0.00000000
  22         0.00044013
  23         0.00096433
  24         0.00000000
  25         0.00000000
  26         0.00000000
  27         0.00000000
  28        -0.00000000
  29         0.00000000
  30         0.00000000
  31         0.74858916
  32         0.01494825
  33         0.00137405
  34         0.00006813
  35         0.00012774
  36        -0.00000000
  37         0.00003954
  38         0.00007413
  39        -0.00000000
  40         0.00000000
  41         0.00000000
  42         0.00000000
  43         0.00000000
  44        -0.00000000
  45        -0.00000000
  46         0.00071115
  47         0.00069376
  48         0.00075718
  49         0.00088705
  50        -0.00048328
  51        -0.00000000
  52         0.00055396
  53        -0.00030181
  54        -0.00000000
  55        -0.00000000
  56        -0.00000000
  57        -0.00000000
  58        -0.00000000
  59         0.00000000
  60         0.00000000
  61         0.00003386
  62         0.00000502
  63         0.00000486
  64         0.00006705
  65         0.00011769
  66        -0.00000000
  67         0.00004187
  68         0.00007349
  69        -0.00000000
  70         0.00000000
  71         0.00000000
  72         0.00000000
  73        -0.00000000
  74         0.00000000
  75         0.00000000
  76        -0.00064558
  77        -0.00060506
  78        -0.00065983
  79        -0.00075761
  80         0.00046029
  81        -0.00000000
  82        -0.00047313
  83         0.00028745
  84        -0.00000000
  85        -0.00000000
  86        -0.00000000
  87        -0.00000000
  88        -0.00000000
  89         0.00000000
  90        -0.00000000
  91        -0.00000157
  92         0.00000698
  93         0.00000668
  94         0.00004496
  95         0.00011256
  96        -0.00000000
  97         0.00003046
  98         0.00007624
  99        -0.00000000
 100         0.00000000
 101         0.00000000
 102         0.00000000
 103         0.00000000
 104         0.00000000
 105         0.00000000
 106        -0.00007930
 107         0.00006996
 108         0.00006829
 109         0.00006831
 110        -0.00010471
 111         0.00000000
 112         0.00004627
 113        -0.00007093
 114         0.00000000
 115        -0.00000000
 116        -0.00000000
 117        -0.00000000
 118        -0.00000000
 119        -0.00000000
 120         0.00000000
 121        -0.00086027
 122        -0.00096053
 123        -0.00000000
 124         0.00000000
 125        -0.00000000
 126         0.00097913
 127         0.00109325
 128        -0.00000000
 129         0.00000000
 130         0.00000000
 131         0.00000019
 132         0.00000010
 133         0.00000011
 134         0.00000075
 135         0.00000032
 136        -0.00000000
 137         0.00000047
 138         0.00000020
 139        -0.00000000
 140         0.00000000
 141         0.00000000
 142        -0.00000000
 143         0.00000000
 144        -0.00000000
 145        -0.00000000
 146        -0.00011036
 147        -0.00012322
 148         0.00000000
 149         0.00000000
 150        -0.00000000
 151        -0.00000001
 152        -0.00000001
 153        -0.00000000
 154        -0.00000000
 155         0.00000000
 156        -0.00000012
 157        -0.00000013
 158        -0.00000000
 159        -0.00000000
 160        -0.00000000
 161        -0.00000012
 162        -0.00000013
 163         0.00000000
 164         0.00000000
 165         0.00000000
Sym=     5a  
Ene=   -11.3540
Spin= Alpha
Occup=    2.00000
   1        -0.00204220
   2         0.00122357
   3         0.00132359
   4        -0.00133102
   5         0.00095469
   6        -0.00000000
   7        -0.00077245
   8         0.00055405
   9        -0.00000000
  10         0.00000000
  11         0.00000000
  12         0.00000000
  13         0.00000000
  14         0.00000000
  15        -0.00000000
  16         0.04190502
  17         0.00097591
  18         0.00018955
  19        -0.00034315
  20         0.00014369
  21         0.00000000
  22        -0.00021430
  23         0.00008974
  24         0.00000000
  25        -0.00000000
  26        -0.00000000
  27        -0.00000000
  28         0.00000000
  29        -0.00000000
  30        -0.00000000
  31        -0.00164267
  32         0.00095568
  33         0.00103470
  34        -0.00117322
  35         0.00038235
  36         0.00000000
  37        -0.00068087
  38         0.00022189
  39         0.00000000
  40        -0.00000000
  41        -0.00000000
  42        -0.00000000
  43         0.00000000
  44         0.00000000
  45         0.00000000
  46         0.40373491
  47         0.00858900
  48         0.00092058
  49        -0.00130361
  50        -0.00096312
  51        -0.00000000
  52        -0.00081410
  53        -0.00060147
  54        -0.00000000
  55         0.00000000
  56        -0.00000000
  57         0.00000000
  58         0.00000000
  59         0.00000000
  60         0.00000000
  61         0.67401018
  62         0.01443523
  63         0.00164422
  64         0.00041929
  65        -0.00075566
  66         0.00000000
  67         0.00026185
  68        -0.00047191
  69         0.00000000
  70         0.00000000
  71        -0.00000000
  72         0.00000000
  73        -0.00000000
  74        -0.00000000
  75        -0.00000000
  76         0.54603118
  77         0.01151039
  78         0.00112724
  79        -0.00014132
  80         0.00198915
  81        -0.00000000
  82        -0.00008826
  83         0.00124222
  84        -0.00000000
  85        -0.00000000
  86        -0.00000000
  87        -0.00000000
  88         0.00000000
  89        -0.00000000
  90         0.00000000
  91        -0.00001587
  92         0.00012686
  93         0.00012116
  94        -0.00014359
  95         0.00007327
  96        -0.00000000
  97        -0.00009726
  98         0.00004963
  99        -0.00000000
 100        -0.00000000
 101        -0.00000000
 102        -0.00000000
 103        -0.00000000
 104        -0.00000000
 105         0.00000000
 106        -0.00093327
 107         0.00140499
 108         0.00135766
 109        -0.00011134
 110        -0.00166552
 111         0.00000000
 112        -0.00007542
 113        -0.00112811
 114         0.00000000
 115        -0.00000000
 116        -0.00000000
 117        -0.00000000
 118         0.00000000
 119         0.00000000
 120        -0.00000000
 121         0.00018137
 122         0.00020251
 123         0.00000000
 124         0.00000000
 125         0.00000000
 126         0.00015004
 127         0.00016753
 128         0.00000000
 129        -0.00000000
 130         0.00000000
 131         0.26078992
 132         0.00584670
 133         0.00092719
 134         0.00134953
 135        -0.00074749
 136        -0.00000000
 137         0.00084278
 138        -0.00046681
 139        -0.00000000
 140        -0.00000000
 141        -0.00000000
 142        -0.00000000
 143         0.00000000
 144         0.00000000
 145         0.00000000
 146         0.00127789
 147         0.00142683
 148        -0.00000000
 149        -0.00000000
 150         0.00000000
 151         0.00072693
 152         0.00081165
 153         0.00000000
 154         0.00000000
 155        -0.00000000
 156         0.00070593
 157         0.00078821
 158         0.00000000
 159         0.00000000
 160        -0.00000000
 161         0.00070593
 162         0.00078821
 163        -0.00000000
 164        -0.00000000
 165        -0.00000000
Sym=     6a  
Ene=   -11.3460
Spin= Alpha
Occup=    2.00000
   1        -0.00328703
   2         0.00193277
   3         0.00209192
   4         0.00235678
   5         0.00138190
   6        -0.00000001
   7         0.00136775
   8         0.00080198
   9        -0.00000000
  10         0.00000000
  11         0.00000000
  12        -0.00000000
  13        -0.00000000
  14        -0.00000000
  15        -0.00000000
  16         0.98978857
  17         0.01842603
  18        -0.00067192
  19         0.00003646
  20        -0.00003628
  21         0.00000000
  22         0.00002277
  23        -0.00002265
  24         0.00000000
  25         0.00000000
  26         0.00000000
  27         0.00000000
  28         0.00000000
  29        -0.00000000
  30         0.00000000
  31        -0.00294178
  32         0.00174001
  33         0.00188296
  34         0.00049307
  35        -0.00284333
  36        -0.00000001
  37         0.00028615
  38        -0.00165011
  39        -0.00000000
  40         0.00000000
  41         0.00000000
  42         0.00000000
  43        -0.00000000
  44        -0.00000000
  45        -0.00000000
  46        -0.08409454
  47        -0.00143344
  48         0.00020413
  49         0.00017978
  50        -0.00026408
  51        -0.00000000
  52         0.00011227
  53        -0.00016492
  54        -0.00000000
  55        -0.00000000
  56         0.00000000
  57         0.00000000
  58        -0.00000000
  59        -0.00000000
  60        -0.00000000
  61        -0.01043328
  62        -0.00026713
  63        -0.00007408
  64         0.00003752
  65        -0.00023004
  66        -0.00000000
  67         0.00002343
  68        -0.00014366
  69        -0.00000000
  70        -0.00000000