[Molden Format]
[N_Atoms]
                   15
[Atoms] (AU)
N1          1      7           0.30414744     -3.12360778      0.00000039
C2          2      6           2.54211672     -1.83855068     -0.00000503
N3          3      7           2.25827074      0.73262253      0.00000001
C4          4      6           0.01663964      2.09395426      0.00000376
C5          5      6          -2.29240599      0.54853951     -0.00000096
C6          6      6          -2.02180350     -1.95096152      0.00000013
O7          7      8           4.55898020     -2.86756312      0.00000120
O8          8      8           0.04936084      4.35263738     -0.00000063
H9          9      1           0.44125338     -4.99608049      0.00000062
H10        10      1           3.85167326      1.73694695      0.00000056
C11        11      6          -4.79222089      1.89418249     -0.00000032
H12        12      1          -3.60980920     -3.21208236      0.00000136
H13        13      1          -6.34142196      0.55384596     -0.00000051
H14        14      1          -4.96970637      3.09704430      1.64900985
H15        15      1          -4.96970631      3.09704441     -1.64901039
[Charge] (Mulliken)
   0.0000000000000000     
   0.0000000000000000     
   0.0000000000000000     
   0.0000000000000000     
   0.0000000000000000     
   0.0000000000000000     
   0.0000000000000000     
   0.0000000000000000     
   0.0000000000000000     
   0.0000000000000000     
   0.0000000000000000     
   0.0000000000000000     
   0.0000000000000000     
   0.0000000000000000     
   0.0000000000000000     
[GTO] (AU)
   1
   s   6
  0.417351146E+04  0.183477216E-02
  0.627457911E+03  0.139946270E-01
  0.142902093E+03  0.685865518E-01
  0.402343293E+02  0.232240873E+00
  0.128202129E+02  0.469069948E+00
  0.439043701E+01  0.360455199E+00
   s   3
  0.116263619E+02 -0.114961182E+00
  0.271627981E+01 -0.169117479E+00
  0.772218397E+00  0.114585195E+01
   s   1
  0.212031497E+00  0.100000000E+01
   p   3
  0.116263619E+02  0.675797439E-01
  0.271627981E+01  0.323907296E+00
  0.772218397E+00  0.740895140E+00
   p   1
  0.212031497E+00  0.100000000E+01
   d   1
  0.800000000E+00  0.100000000E+01
 
   2
   s   6
  0.304752488E+04  0.183473713E-02
  0.457369518E+03  0.140373228E-01
  0.103948685E+03  0.688426223E-01
  0.292101553E+02  0.232184443E+00
  0.928666296E+01  0.467941348E+00
  0.316392696E+01  0.362311985E+00
   s   3
  0.786827235E+01 -0.119332420E+00
  0.188128854E+01 -0.160854152E+00
  0.544249258E+00  0.114345644E+01
   s   1
  0.168714478E+00  0.100000000E+01
   p   3
  0.786827235E+01  0.689990666E-01
  0.188128854E+01  0.316423961E+00
  0.544249258E+00  0.744308291E+00
   p   1
  0.168714478E+00  0.100000000E+01
   d   1
  0.800000000E+00  0.100000000E+01
 
   3
   s   6
  0.417351146E+04  0.183477216E-02
  0.627457911E+03  0.139946270E-01
  0.142902093E+03  0.685865518E-01
  0.402343293E+02  0.232240873E+00
  0.128202129E+02  0.469069948E+00
  0.439043701E+01  0.360455199E+00
   s   3
  0.116263619E+02 -0.114961182E+00
  0.271627981E+01 -0.169117479E+00
  0.772218397E+00  0.114585195E+01
   s   1
  0.212031497E+00  0.100000000E+01
   p   3
  0.116263619E+02  0.675797439E-01
  0.271627981E+01  0.323907296E+00
  0.772218397E+00  0.740895140E+00
   p   1
  0.212031497E+00  0.100000000E+01
   d   1
  0.800000000E+00  0.100000000E+01
 
   4
   s   6
  0.304752488E+04  0.183473713E-02
  0.457369518E+03  0.140373228E-01
  0.103948685E+03  0.688426223E-01
  0.292101553E+02  0.232184443E+00
  0.928666296E+01  0.467941348E+00
  0.316392696E+01  0.362311985E+00
   s   3
  0.786827235E+01 -0.119332420E+00
  0.188128854E+01 -0.160854152E+00
  0.544249258E+00  0.114345644E+01
   s   1
  0.168714478E+00  0.100000000E+01
   p   3
  0.786827235E+01  0.689990666E-01
  0.188128854E+01  0.316423961E+00
  0.544249258E+00  0.744308291E+00
   p   1
  0.168714478E+00  0.100000000E+01
   d   1
  0.800000000E+00  0.100000000E+01
 
   5
   s   6
  0.304752488E+04  0.183473713E-02
  0.457369518E+03  0.140373228E-01
  0.103948685E+03  0.688426223E-01
  0.292101553E+02  0.232184443E+00
  0.928666296E+01  0.467941348E+00
  0.316392696E+01  0.362311985E+00
   s   3
  0.786827235E+01 -0.119332420E+00
  0.188128854E+01 -0.160854152E+00
  0.544249258E+00  0.114345644E+01
   s   1
  0.168714478E+00  0.100000000E+01
   p   3
  0.786827235E+01  0.689990666E-01
  0.188128854E+01  0.316423961E+00
  0.544249258E+00  0.744308291E+00
   p   1
  0.168714478E+00  0.100000000E+01
   d   1
  0.800000000E+00  0.100000000E+01
 
   6
   s   6
  0.304752488E+04  0.183473713E-02
  0.457369518E+03  0.140373228E-01
  0.103948685E+03  0.688426223E-01
  0.292101553E+02  0.232184443E+00
  0.928666296E+01  0.467941348E+00
  0.316392696E+01  0.362311985E+00
   s   3
  0.786827235E+01 -0.119332420E+00
  0.188128854E+01 -0.160854152E+00
  0.544249258E+00  0.114345644E+01
   s   1
  0.168714478E+00  0.100000000E+01
   p   3
  0.786827235E+01  0.689990666E-01
  0.188128854E+01  0.316423961E+00
  0.544249258E+00  0.744308291E+00
   p   1
  0.168714478E+00  0.100000000E+01
   d   1
  0.800000000E+00  0.100000000E+01
 
   7
   s   6
  0.548467166E+04  0.183107443E-02
  0.825234946E+03  0.139501722E-01
  0.188046958E+03  0.684450781E-01
  0.529645000E+02  0.232714336E+00
  0.168975704E+02  0.470192898E+00
  0.579963534E+01  0.358520853E+00
   s   3
  0.155396162E+02 -0.110777550E+00
  0.359993359E+01 -0.148026263E+00
  0.101376175E+01  0.113076702E+01
   s   1
  0.270005823E+00  0.100000000E+01
   p   3
  0.155396162E+02  0.708742682E-01
  0.359993359E+01  0.339752839E+00
  0.101376175E+01  0.727158577E+00
   p   1
  0.270005823E+00  0.100000000E+01
   d   1
  0.800000000E+00  0.100000000E+01
 
   8
   s   6
  0.548467166E+04  0.183107443E-02
  0.825234946E+03  0.139501722E-01
  0.188046958E+03  0.684450781E-01
  0.529645000E+02  0.232714336E+00
  0.168975704E+02  0.470192898E+00
  0.579963534E+01  0.358520853E+00
   s   3
  0.155396162E+02 -0.110777550E+00
  0.359993359E+01 -0.148026263E+00
  0.101376175E+01  0.113076702E+01
   s   1
  0.270005823E+00  0.100000000E+01
   p   3
  0.155396162E+02  0.708742682E-01
  0.359993359E+01  0.339752839E+00
  0.101376175E+01  0.727158577E+00
   p   1
  0.270005823E+00  0.100000000E+01
   d   1
  0.800000000E+00  0.100000000E+01
 
   9
   s   3
  0.187311370E+02  0.334946043E-01
  0.282539437E+01  0.234726954E+00
  0.640121692E+00  0.813757326E+00
   s   1
  0.161277759E+00  0.100000000E+01
   p   1
  0.110000000E+01  0.100000000E+01
 
  10
   s   3
  0.187311370E+02  0.334946043E-01
  0.282539437E+01  0.234726954E+00
  0.640121692E+00  0.813757326E+00
   s   1
  0.161277759E+00  0.100000000E+01
   p   1
  0.110000000E+01  0.100000000E+01
 
  11
   s   6
  0.304752488E+04  0.183473713E-02
  0.457369518E+03  0.140373228E-01
  0.103948685E+03  0.688426223E-01
  0.292101553E+02  0.232184443E+00
  0.928666296E+01  0.467941348E+00
  0.316392696E+01  0.362311985E+00
   s   3
  0.786827235E+01 -0.119332420E+00
  0.188128854E+01 -0.160854152E+00
  0.544249258E+00  0.114345644E+01
   s   1
  0.168714478E+00  0.100000000E+01
   p   3
  0.786827235E+01  0.689990666E-01
  0.188128854E+01  0.316423961E+00
  0.544249258E+00  0.744308291E+00
   p   1
  0.168714478E+00  0.100000000E+01
   d   1
  0.800000000E+00  0.100000000E+01
 
  12
   s   3
  0.187311370E+02  0.334946043E-01
  0.282539437E+01  0.234726954E+00
  0.640121692E+00  0.813757326E+00
   s   1
  0.161277759E+00  0.100000000E+01
   p   1
  0.110000000E+01  0.100000000E+01
 
  13
   s   3
  0.187311370E+02  0.334946043E-01
  0.282539437E+01  0.234726954E+00
  0.640121692E+00  0.813757326E+00
   s   1
  0.161277759E+00  0.100000000E+01
   p   1
  0.110000000E+01  0.100000000E+01
 
  14
   s   3
  0.187311370E+02  0.334946043E-01
  0.282539437E+01  0.234726954E+00
  0.640121692E+00  0.813757326E+00
   s   1
  0.161277759E+00  0.100000000E+01
   p   1
  0.110000000E+01  0.100000000E+01
 
  15
   s   3
  0.187311370E+02  0.334946043E-01
  0.282539437E+01  0.234726954E+00
  0.640121692E+00  0.813757326E+00
   s   1
  0.161277759E+00  0.100000000E+01
   p   1
  0.110000000E+01  0.100000000E+01
 
[MO]
Sym=     1a  
Ene=   -20.6290
Spin= Alpha
Occup=    1.00000
   1        -0.00001311
   2        -0.00006010
   3         0.00033618
   4        -0.00003341
   5        -0.00001657
   6        -0.00000000
   7         0.00011699
   8         0.00012634
   9        -0.00000000
  10        -0.00010549
  11         0.00010160
  12        -0.00006360
  13         0.00006667
  14        -0.00000000
  15        -0.00000000
  16        -0.00001393
  17         0.00043793
  18        -0.00102892
  19        -0.00013849
  20         0.00006964
  21        -0.00000000
  22        -0.00060420
  23         0.00030665
  24        -0.00000000
  25        -0.00079343
  26        -0.00022218
  27        -0.00003975
  28         0.00045575
  29        -0.00000000
  30         0.00000000
  31        -0.00001191
  32        -0.00005311
  33         0.00031772
  34        -0.00000597
  35         0.00003633
  36        -0.00000000
  37        -0.00001923
  38        -0.00020245
  39         0.00000000
  40        -0.00002928
  41         0.00002189
  42        -0.00005903
  43         0.00013878
  44         0.00000000
  45         0.00000000
  46         0.00001439
  47         0.00006385
  48        -0.00024045
  49         0.00002871
  50        -0.00001713
  51        -0.00000000
  52         0.00012665
  53         0.00051850
  54         0.00000000
  55         0.00005193
  56        -0.00000143
  57         0.00002623
  58        -0.00001405
  59        -0.00000000
  60        -0.00000000
  61        -0.00000423
  62        -0.00003018
  63         0.00069043
  64         0.00001302
  65         0.00000058
  66        -0.00000000
  67         0.00031289
  68        -0.00018161
  69         0.00000000
  70         0.00001403
  71        -0.00000879
  72        -0.00000156
  73        -0.00001519
  74         0.00000000
  75        -0.00000000
  76         0.00000865
  77         0.00005307
  78        -0.00046534
  79         0.00002952
  80        -0.00000890
  81        -0.00000000
  82        -0.00024567
  83        -0.00032138
  84         0.00000000
  85        -0.00000435
  86         0.00001413
  87         0.00001923
  88        -0.00004265
  89         0.00000000
  90         0.00000000
  91         0.99464815
  92         0.02107177
  93         0.00507215
  94        -0.00151476
  95         0.00077383
  96        -0.00000001
  97        -0.00015312
  98         0.00007600
  99        -0.00000000
 100        -0.00366801
 101        -0.00402664
 102        -0.00416643
 103        -0.00028326
 104         0.00000000
 105        -0.00000000
 106         0.00001482
 107         0.00006830
 108        -0.00044049
 109         0.00000219
 110        -0.00000709
 111         0.00000000
 112        -0.00001729
 113         0.00009302
 114        -0.00000000
 115         0.00004192
 116         0.00003769
 117         0.00003989
 118         0.00000178
 119        -0.00000000
 120         0.00000000
 121        -0.00004200
 122        -0.00001834
 123         0.00001583
 124        -0.00004608
 125        -0.00000000
 126        -0.00003729
 127        -0.00002840
 128         0.00004802
 129         0.00001370
 130        -0.00000000
 131         0.00000120
 132         0.00000710
 133         0.00006543
 134         0.00000051
 135         0.00000069
 136         0.00000000
 137         0.00001171
 138        -0.00000815
 139        -0.00000000
 140        -0.00000330
 141         0.00000197
 142         0.00000237
 143         0.00000451
 144        -0.00000000
 145        -0.00000000
 146        -0.00000599
 147        -0.00012567
 148         0.00000494
 149         0.00001129
 150        -0.00000000
 151        -0.00000226
 152         0.00000473
 153         0.00000107
 154        -0.00000183
 155         0.00000000
 156         0.00000175
 157        -0.00000521
 158         0.00000085
 159         0.00000000
 160         0.00000127
 161         0.00000175
 162        -0.00000521
 163         0.00000085
 164         0.00000000
 165        -0.00000127
Sym=     1a  
Ene=   -20.6290
Spin= Beta
Occup=    1.00000
   1        -0.00001311
   2        -0.00006010
   3         0.00033618
   4        -0.00003341
   5        -0.00001657
   6        -0.00000000
   7         0.00011699
   8         0.00012634
   9        -0.00000000
  10        -0.00010549
  11         0.00010160
  12        -0.00006360
  13         0.00006667
  14        -0.00000000
  15        -0.00000000
  16        -0.00001393
  17         0.00043793
  18        -0.00102892
  19        -0.00013849
  20         0.00006964
  21        -0.00000000
  22        -0.00060420
  23         0.00030665
  24        -0.00000000
  25        -0.00079343
  26        -0.00022218
  27        -0.00003975
  28         0.00045575
  29        -0.00000000
  30         0.00000000
  31        -0.00001191
  32        -0.00005311
  33         0.00031772
  34        -0.00000597
  35         0.00003633
  36        -0.00000000
  37        -0.00001923
  38        -0.00020245
  39         0.00000000
  40        -0.00002928
  41         0.00002189
  42        -0.00005903
  43         0.00013878
  44         0.00000000
  45         0.00000000
  46         0.00001439
  47         0.00006385
  48        -0.00024045
  49         0.00002871
  50        -0.00001713
  51        -0.00000000
  52         0.00012665
  53         0.00051850
  54         0.00000000
  55         0.00005193
  56        -0.00000143
  57         0.00002623
  58        -0.00001405
  59        -0.00000000
  60        -0.00000000
  61        -0.00000423
  62        -0.00003018
  63         0.00069043
  64         0.00001302
  65         0.00000058
  66        -0.00000000
  67         0.00031289
  68        -0.00018161
  69         0.00000000
  70         0.00001403
  71        -0.00000879
  72        -0.00000156
  73        -0.00001519
  74         0.00000000
  75        -0.00000000
  76         0.00000865
  77         0.00005307
  78        -0.00046534
  79         0.00002952
  80        -0.00000890
  81        -0.00000000
  82        -0.00024567
  83        -0.00032138
  84         0.00000000
  85        -0.00000435
  86         0.00001413
  87         0.00001923
  88        -0.00004265
  89         0.00000000
  90         0.00000000
  91         0.99464815
  92         0.02107177
  93         0.00507215
  94        -0.00151476
  95         0.00077383
  96        -0.00000001
  97        -0.00015312
  98         0.00007600
  99        -0.00000000
 100        -0.00366801
 101        -0.00402664
 102        -0.00416643
 103        -0.00028326
 104         0.00000000
 105        -0.00000000
 106         0.00001482
 107         0.00006830
 108        -0.00044049
 109         0.00000219
 110        -0.00000709
 111         0.00000000
 112        -0.00001729
 113         0.00009302
 114        -0.00000000
 115         0.00004192
 116         0.00003769
 117         0.00003989
 118         0.00000178
 119        -0.00000000
 120         0.00000000
 121        -0.00004200
 122        -0.00001834
 123         0.00001583
 124        -0.00004608
 125        -0.00000000
 126        -0.00003729
 127        -0.00002840
 128         0.00004802
 129         0.00001370
 130        -0.00000000
 131         0.00000120
 132         0.00000710
 133         0.00006543
 134         0.00000051
 135         0.00000069
 136         0.00000000
 137         0.00001171
 138        -0.00000815
 139        -0.00000000
 140        -0.00000330
 141         0.00000197
 142         0.00000237
 143         0.00000451
 144        -0.00000000
 145        -0.00000000
 146        -0.00000599
 147        -0.00012567
 148         0.00000494
 149         0.00001129
 150        -0.00000000
 151        -0.00000226
 152         0.00000473
 153         0.00000107
 154        -0.00000183
 155         0.00000000
 156         0.00000175
 157        -0.00000521
 158         0.00000085
 159         0.00000000
 160         0.00000127
 161         0.00000175
 162        -0.00000521
 163         0.00000085
 164         0.00000000
 165        -0.00000127
Sym=     2a  
Ene=   -20.5550
Spin= Alpha
Occup=    1.00000
   1        -0.00000126
   2        -0.00000338
   3         0.00019178
   4         0.00000195
   5         0.00000632
   6         0.00000000
   7         0.00005939
   8         0.00003752
   9        -0.00000000
  10        -0.00002357
  11         0.00000879
  12         0.00000580
  13         0.00000370
  14         0.00000000
  15        -0.00000000
  16         0.00001245
  17         0.00005273
  18         0.00001891
  19        -0.00000274
  20         0.00003518
  21         0.00000000
  22         0.00037419
  23        -0.00001931
  24         0.00000000
  25         0.00000173
  26         0.00005302
  27         0.00002201
  28         0.00001631
  29         0.00000000
  30         0.00000000
  31        -0.00001114
  32        -0.00004568
  33         0.00020198
  34         0.00004148
  35        -0.00003269
  36         0.00000000
  37        -0.00015129
  38         0.00021728
  39         0.00000000
  40         0.00007214
  41        -0.00010216
  42        -0.00005787
  43         0.00006174
  44        -0.00000000
  45        -0.00000000
  46        -0.00001383
  47         0.00040664
  48        -0.00078992
  49         0.00000486
  50        -0.00016654
  51         0.00000000
  52        -0.00022392
  53        -0.00092863
  54         0.00000000
  55        -0.00003088
  56        -0.00093439
  57        -0.00004624
  58        -0.00000494
  59         0.00000000
  60         0.00000000
  61        -0.00000183
  62        -0.00001030
  63        -0.00018417
  64        -0.00000219
  65        -0.00002688
  66         0.00000000
  67        -0.00018899
  68         0.00015245
  69        -0.00000000
  70         0.00007043
  71        -0.00007527
  72        -0.00002092
  73        -0.00003620
  74         0.00000000
  75        -0.00000000
  76         0.00000204
  77         0.00002767
  78         0.00009326
  79        -0.00000433
  80         0.00002387
  81         0.00000000
  82        -0.00001681
  83         0.00001162
  84         0.00000000
  85        -0.00001002
  86         0.00000779
  87         0.00000380
  88        -0.00004108
  89        -0.00000000
  90        -0.00000000
  91         0.00001296
  92         0.00006107
  93        -0.00037650
  94        -0.00000631
  95         0.00000304
  96        -0.00000000
  97         0.00007090
  98        -0.00006002
  99         0.00000000
 100         0.00003282
 101         0.00003571
 102         0.00003687
 103         0.00000391
 104        -0.00000000
 105         0.00000000
 106         0.99463138
 107         0.02106084
 108         0.00527547
 109         0.00001894
 110        -0.00165319
 111         0.00000000
 112         0.00000197
 113        -0.00019965
 114         0.00000000
 115        -0.00411646
 116        -0.00359907
 117        -0.00423272
 118         0.00000979
 119        -0.00000000
 120        -0.00000000
 121        -0.00000988
 122        -0.00000457
 123        -0.00000217
 124        -0.00000505
 125         0.00000000
 126        -0.00004139
 127        -0.00004123
 128         0.00003154
 129         0.00002421
 130         0.00000000
 131         0.00000349
 132         0.00001899
 133        -0.00011260
 134         0.00000143
 135         0.00002228
 136        -0.00000000
 137        -0.00014408
 138        -0.00004590
 139         0.00000000
 140        -0.00000236
 141        -0.00000091
 142         0.00000565
 143         0.00002140
 144         0.00000000
 145        -0.00000000
 146         0.00000768
 147        -0.00000946
 148         0.00001076
 149         0.00000594
 150        -0.00000000
 151        -0.00001273
 152        -0.00007362
 153        -0.00000490
 154        -0.00000807
 155        -0.00000000
 156         0.00002351
 157        -0.00000986
 158         0.00000838
 159         0.00000809
 160        -0.00000055
 161         0.00002351
 162        -0.00000986
 163         0.00000838
 164         0.00000809
 165         0.00000055
Sym=     2a  
Ene=   -20.5550
Spin= Beta
Occup=    1.00000
   1        -0.00000126
   2        -0.00000338
   3         0.00019178
   4         0.00000195
   5         0.00000632
   6         0.00000000
   7         0.00005939
   8         0.00003752
   9        -0.00000000
  10        -0.00002357
  11         0.00000879
  12         0.00000580
  13         0.00000370
  14         0.00000000
  15        -0.00000000
  16         0.00001245
  17         0.00005273
  18         0.00001891
  19        -0.00000274
  20         0.00003518
  21         0.00000000
  22         0.00037419
  23        -0.00001931
  24         0.00000000
  25         0.00000173
  26         0.00005302
  27         0.00002201
  28         0.00001631
  29         0.00000000
  30         0.00000000
  31        -0.00001114
  32        -0.00004568
  33         0.00020198
  34         0.00004148
  35        -0.00003269
  36         0.00000000
  37        -0.00015129
  38         0.00021728
  39         0.00000000
  40         0.00007214
  41        -0.00010216
  42        -0.00005787
  43         0.00006174
  44        -0.00000000
  45        -0.00000000
  46        -0.00001383
  47         0.00040664
  48        -0.00078992
  49         0.00000486
  50        -0.00016654
  51         0.00000000
  52        -0.00022392
  53        -0.00092863
  54         0.00000000
  55        -0.00003088
  56        -0.00093439
  57        -0.00004624
  58        -0.00000494
  59         0.00000000
  60         0.00000000
  61        -0.00000183
  62        -0.00001030
  63        -0.00018417
  64        -0.00000219
  65        -0.00002688
  66         0.00000000
  67        -0.00018899
  68         0.00015245
  69        -0.00000000
  70         0.00007043
  71        -0.00007527
  72        -0.00002092
  73        -0.00003620
  74         0.00000000
  75        -0.00000000
  76         0.00000204
  77         0.00002767
  78         0.00009326
  79        -0.00000433
  80         0.00002387
  81         0.00000000
  82        -0.00001681
  83         0.00001162
  84         0.00000000
  85        -0.00001002
  86         0.00000779
  87         0.00000380
  88        -0.00004108
  89        -0.00000000
  90        -0.00000000
  91         0.00001296
  92         0.00006107
  93        -0.00037650
  94        -0.00000631
  95         0.00000304
  96        -0.00000000
  97         0.00007090
  98        -0.00006002
  99         0.00000000
 100         0.00003282
 101         0.00003571
 102         0.00003687
 103         0.00000391
 104        -0.00000000
 105         0.00000000
 106         0.99463138
 107         0.02106084
 108         0.00527547
 109         0.00001894
 110        -0.00165319
 111         0.00000000
 112         0.00000197
 113        -0.00019965
 114         0.00000000
 115        -0.00411646
 116        -0.00359907
 117        -0.00423272
 118         0.00000979
 119        -0.00000000
 120        -0.00000000
 121        -0.00000988
 122        -0.00000457
 123        -0.00000217
 124        -0.00000505
 125         0.00000000
 126        -0.00004139
 127        -0.00004123
 128         0.00003154
 129         0.00002421
 130         0.00000000
 131         0.00000349
 132         0.00001899
 133        -0.00011260
 134         0.00000143
 135         0.00002228
 136        -0.00000000
 137        -0.00014408
 138        -0.00004590
 139         0.00000000
 140        -0.00000236
 141        -0.00000091
 142         0.00000565
 143         0.00002140
 144         0.00000000
 145        -0.00000000
 146         0.00000768
 147        -0.00000946
 148         0.00001076
 149         0.00000594
 150        -0.00000000
 151        -0.00001273
 152        -0.00007362
 153        -0.00000490
 154        -0.00000807
 155        -0.00000000
 156         0.00002351
 157        -0.00000986
 158         0.00000838
 159         0.00000809
 160        -0.00000055
 161         0.00002351
 162        -0.00000986
 163         0.00000838
 164         0.00000809
 165         0.00000055
Sym=     3a  
Ene=   -15.6370
Spin= Alpha
Occup=    1.00000
   1         0.99498249
   2         0.02554186
   3        -0.00494123
   4         0.00017261
   5         0.00010438
   6        -0.00000001
   7        -0.00036541
   8        -0.00161215
   9         0.00000001
  10        -0.00339855
  11        -0.00325985
  12        -0.00333058
  13        -0.00000413
  14         0.00000000
  15         0.00000000
  16         0.00001792
  17         0.00022387
  18         0.00180644
  19        -0.00022775
  20        -0.00011197
  21        -0.00000000
  22        -0.00219092
  23        -0.00062168
  24         0.00000000
  25        -0.00013026
  26        -0.00010509
  27        -0.00006040
  28        -0.00008478
  29         0.00000000
  30        -0.00000000
  31        -0.00149319
  32        -0.00002502
  33        -0.00070730
  34        -0.00002548
  35         0.00005140
  36        -0.00000000
  37         0.00089390
  38        -0.00005643
  39        -0.00000000
  40         0.00006276
  41         0.00005226
  42        -0.00000914
  43        -0.00001624
  44        -0.00000000
  45         0.00000000
  46        -0.00000360
  47        -0.00003633
  48         0.00145006
  49         0.00001801
  50        -0.00002451
  51        -0.00000000
  52        -0.00014191
  53        -0.00094501
  54        -0.00000000
  55         0.00001971
  56         0.00001456
  57        -0.00000926
  58         0.00001046
  59         0.00000000
  60         0.00000000
  61         0.00002747
  62         0.00013634
  63        -0.00217577
  64         0.00002921
  65         0.00002980
  66        -0.00000000
  67        -0.00160273
  68         0.00072113
  69        -0.00000000
  70         0.00000889
  71        -0.00000537
  72         0.00003120
  73         0.00003478
  74        -0.00000000
  75        -0.00000000
  76         0.00000939
  77         0.00013307
  78         0.00277760
  79         0.00018508
  80        -0.00010598
  81        -0.00000000
  82         0.00172921
  83         0.00081428
  84        -0.00000000
  85        -0.00006042
  86        -0.00004969
  87        -0.00008451
  88         0.00006294
  89        -0.00000000
  90         0.00000000
  91        -0.00002822
  92        -0.00016794
  93         0.00099731
  94         0.00001931
  95        -0.00003242
  96        -0.00000000
  97         0.00001654
  98         0.00042077
  99        -0.00000000
 100        -0.00014795
 101        -0.00002136
 102        -0.00012526
 103        -0.00004572
 104         0.00000000
 105        -0.00000000
 106        -0.00001476
 107        -0.00006340
 108         0.00042386
 109        -0.00000991
 110         0.00000759
 111        -0.00000000
 112         0.00005520
 113        -0.00005187
 114         0.00000000
 115        -0.00003512
 116        -0.00004685
 117        -0.00004492
 118        -0.00001213
 119         0.00000000
 120        -0.00000000
 121         0.00010520
 122        -0.00001329
 123         0.00001207
 124        -0.00014970
 125        -0.00000000
 126        -0.00010435
 127        -0.00000097
 128        -0.00000554
 129         0.00000764
 130         0.00000000
 131        -0.00000556
 132        -0.00000345
 133        -0.00056318
 134        -0.00002503
 135         0.00002173
 136        -0.00000000
 137        -0.00013810
 138         0.00006795
 139         0.00000000
 140        -0.00000785
 141        -0.00002131
 142        -0.00002486
 143        -0.00000218
 144         0.00000000
 145         0.00000000
 146         0.00001675
 147         0.00046354
 148        -0.00005264
 149         0.00002022
 150         0.00000000
 151        -0.00000232
 152         0.00005031
 153         0.00000452
 154         0.00000593
 155        -0.00000000
 156         0.00001069
 157         0.00001509
 158        -0.00000651
 159         0.00000136
 160        -0.00000900
 161         0.00001069
 162         0.00001509
 163        -0.00000651
 164         0.00000136
 165         0.00000900
Sym=     3a  
Ene=   -15.6370
Spin= Beta
Occup=    1.00000
   1         0.99498249
   2         0.02554186
   3        -0.00494123
   4         0.00017261
   5         0.00010438
   6        -0.00000001
   7        -0.00036541
   8        -0.00161215
   9         0.00000001
  10        -0.00339855
  11        -0.00325985
  12        -0.00333058
  13        -0.00000413
  14         0.00000000
  15         0.00000000
  16         0.00001792
  17         0.00022387
  18         0.00180644
  19        -0.00022775
  20        -0.00011197
  21        -0.00000000
  22        -0.00219092
  23        -0.00062168
  24         0.00000000
  25        -0.00013026
  26        -0.00010509
  27        -0.00006040
  28        -0.00008478
  29         0.00000000
  30        -0.00000000
  31        -0.00149319
  32        -0.00002502
  33        -0.00070730
  34        -0.00002548
  35         0.00005140
  36        -0.00000000
  37         0.00089390
  38        -0.00005643
  39        -0.00000000
  40         0.00006276
  41         0.00005226
  42        -0.00000914
  43        -0.00001624
  44        -0.00000000
  45         0.00000000
  46        -0.00000360
  47        -0.00003633
  48         0.00145006
  49         0.00001801
  50        -0.00002451
  51        -0.00000000
  52        -0.00014191
  53        -0.00094501
  54        -0.00000000
  55         0.00001971
  56         0.00001456
  57        -0.00000926
  58         0.00001046
  59         0.00000000
  60         0.00000000
  61         0.00002747
  62         0.00013634
  63        -0.00217577
  64         0.00002921
  65         0.00002980
  66        -0.00000000
  67        -0.00160273
  68         0.00072113
  69        -0.00000000
  70         0.00000889