[Molden Format]
[N_Atoms]
                   15
[Atoms] (AU)
N1          1      7           0.30238381     -3.12354392      0.00138643
C2          2      6           2.54502560     -1.83953704     -0.00304871
N3          3      7           2.25757155      0.73366247     -0.00013130
C4          4      6           0.01803571      2.09416898      0.00473296
C5          5      6          -2.29254949      0.54769410      0.00402248
C6          6      6          -2.02113075     -1.95038816      0.00470908
O7          7      8           4.55580181     -2.86614865     -0.00856784
O8          8      8           0.04954159      4.35249939      0.00615045
H9          9      1           0.44049365     -4.99617181      0.00086998
H10        10      1           3.85220323      1.73765307     -0.00254371
C11        11      6          -4.79183467      1.89369314     -0.00181373
H12        12      1          -3.61028572     -3.21199198      0.00677164
H13        13      1          -6.34119141      0.55330606     -0.00715726
H14        14      1          -4.97478233      3.09682656      1.64628854
H15        15      1          -4.96391460      3.09624964     -1.65166895
[Charge] (Mulliken)
   0.0000000000000000     
   0.0000000000000000     
   0.0000000000000000     
   0.0000000000000000     
   0.0000000000000000     
   0.0000000000000000     
   0.0000000000000000     
   0.0000000000000000     
   0.0000000000000000     
   0.0000000000000000     
   0.0000000000000000     
   0.0000000000000000     
   0.0000000000000000     
   0.0000000000000000     
   0.0000000000000000     
[GTO] (AU)
   1
   s   6
  0.417351146E+04  0.183477216E-02
  0.627457911E+03  0.139946270E-01
  0.142902093E+03  0.685865518E-01
  0.402343293E+02  0.232240873E+00
  0.128202129E+02  0.469069948E+00
  0.439043701E+01  0.360455199E+00
   s   3
  0.116263619E+02 -0.114961182E+00
  0.271627981E+01 -0.169117479E+00
  0.772218397E+00  0.114585195E+01
   s   1
  0.212031497E+00  0.100000000E+01
   p   3
  0.116263619E+02  0.675797439E-01
  0.271627981E+01  0.323907296E+00
  0.772218397E+00  0.740895140E+00
   p   1
  0.212031497E+00  0.100000000E+01
   d   1
  0.800000000E+00  0.100000000E+01
 
   2
   s   6
  0.304752488E+04  0.183473713E-02
  0.457369518E+03  0.140373228E-01
  0.103948685E+03  0.688426223E-01
  0.292101553E+02  0.232184443E+00
  0.928666296E+01  0.467941348E+00
  0.316392696E+01  0.362311985E+00
   s   3
  0.786827235E+01 -0.119332420E+00
  0.188128854E+01 -0.160854152E+00
  0.544249258E+00  0.114345644E+01
   s   1
  0.168714478E+00  0.100000000E+01
   p   3
  0.786827235E+01  0.689990666E-01
  0.188128854E+01  0.316423961E+00
  0.544249258E+00  0.744308291E+00
   p   1
  0.168714478E+00  0.100000000E+01
   d   1
  0.800000000E+00  0.100000000E+01
 
   3
   s   6
  0.417351146E+04  0.183477216E-02
  0.627457911E+03  0.139946270E-01
  0.142902093E+03  0.685865518E-01
  0.402343293E+02  0.232240873E+00
  0.128202129E+02  0.469069948E+00
  0.439043701E+01  0.360455199E+00
   s   3
  0.116263619E+02 -0.114961182E+00
  0.271627981E+01 -0.169117479E+00
  0.772218397E+00  0.114585195E+01
   s   1
  0.212031497E+00  0.100000000E+01
   p   3
  0.116263619E+02  0.675797439E-01
  0.271627981E+01  0.323907296E+00
  0.772218397E+00  0.740895140E+00
   p   1
  0.212031497E+00  0.100000000E+01
   d   1
  0.800000000E+00  0.100000000E+01
 
   4
   s   6
  0.304752488E+04  0.183473713E-02
  0.457369518E+03  0.140373228E-01
  0.103948685E+03  0.688426223E-01
  0.292101553E+02  0.232184443E+00
  0.928666296E+01  0.467941348E+00
  0.316392696E+01  0.362311985E+00
   s   3
  0.786827235E+01 -0.119332420E+00
  0.188128854E+01 -0.160854152E+00
  0.544249258E+00  0.114345644E+01
   s   1
  0.168714478E+00  0.100000000E+01
   p   3
  0.786827235E+01  0.689990666E-01
  0.188128854E+01  0.316423961E+00
  0.544249258E+00  0.744308291E+00
   p   1
  0.168714478E+00  0.100000000E+01
   d   1
  0.800000000E+00  0.100000000E+01
 
   5
   s   6
  0.304752488E+04  0.183473713E-02
  0.457369518E+03  0.140373228E-01
  0.103948685E+03  0.688426223E-01
  0.292101553E+02  0.232184443E+00
  0.928666296E+01  0.467941348E+00
  0.316392696E+01  0.362311985E+00
   s   3
  0.786827235E+01 -0.119332420E+00
  0.188128854E+01 -0.160854152E+00
  0.544249258E+00  0.114345644E+01
   s   1
  0.168714478E+00  0.100000000E+01
   p   3
  0.786827235E+01  0.689990666E-01
  0.188128854E+01  0.316423961E+00
  0.544249258E+00  0.744308291E+00
   p   1
  0.168714478E+00  0.100000000E+01
   d   1
  0.800000000E+00  0.100000000E+01
 
   6
   s   6
  0.304752488E+04  0.183473713E-02
  0.457369518E+03  0.140373228E-01
  0.103948685E+03  0.688426223E-01
  0.292101553E+02  0.232184443E+00
  0.928666296E+01  0.467941348E+00
  0.316392696E+01  0.362311985E+00
   s   3
  0.786827235E+01 -0.119332420E+00
  0.188128854E+01 -0.160854152E+00
  0.544249258E+00  0.114345644E+01
   s   1
  0.168714478E+00  0.100000000E+01
   p   3
  0.786827235E+01  0.689990666E-01
  0.188128854E+01  0.316423961E+00
  0.544249258E+00  0.744308291E+00
   p   1
  0.168714478E+00  0.100000000E+01
   d   1
  0.800000000E+00  0.100000000E+01
 
   7
   s   6
  0.548467166E+04  0.183107443E-02
  0.825234946E+03  0.139501722E-01
  0.188046958E+03  0.684450781E-01
  0.529645000E+02  0.232714336E+00
  0.168975704E+02  0.470192898E+00
  0.579963534E+01  0.358520853E+00
   s   3
  0.155396162E+02 -0.110777550E+00
  0.359993359E+01 -0.148026263E+00
  0.101376175E+01  0.113076702E+01
   s   1
  0.270005823E+00  0.100000000E+01
   p   3
  0.155396162E+02  0.708742682E-01
  0.359993359E+01  0.339752839E+00
  0.101376175E+01  0.727158577E+00
   p   1
  0.270005823E+00  0.100000000E+01
   d   1
  0.800000000E+00  0.100000000E+01
 
   8
   s   6
  0.548467166E+04  0.183107443E-02
  0.825234946E+03  0.139501722E-01
  0.188046958E+03  0.684450781E-01
  0.529645000E+02  0.232714336E+00
  0.168975704E+02  0.470192898E+00
  0.579963534E+01  0.358520853E+00
   s   3
  0.155396162E+02 -0.110777550E+00
  0.359993359E+01 -0.148026263E+00
  0.101376175E+01  0.113076702E+01
   s   1
  0.270005823E+00  0.100000000E+01
   p   3
  0.155396162E+02  0.708742682E-01
  0.359993359E+01  0.339752839E+00
  0.101376175E+01  0.727158577E+00
   p   1
  0.270005823E+00  0.100000000E+01
   d   1
  0.800000000E+00  0.100000000E+01
 
   9
   s   3
  0.187311370E+02  0.334946043E-01
  0.282539437E+01  0.234726954E+00
  0.640121692E+00  0.813757326E+00
   s   1
  0.161277759E+00  0.100000000E+01
   p   1
  0.110000000E+01  0.100000000E+01
 
  10
   s   3
  0.187311370E+02  0.334946043E-01
  0.282539437E+01  0.234726954E+00
  0.640121692E+00  0.813757326E+00
   s   1
  0.161277759E+00  0.100000000E+01
   p   1
  0.110000000E+01  0.100000000E+01
 
  11
   s   6
  0.304752488E+04  0.183473713E-02
  0.457369518E+03  0.140373228E-01
  0.103948685E+03  0.688426223E-01
  0.292101553E+02  0.232184443E+00
  0.928666296E+01  0.467941348E+00
  0.316392696E+01  0.362311985E+00
   s   3
  0.786827235E+01 -0.119332420E+00
  0.188128854E+01 -0.160854152E+00
  0.544249258E+00  0.114345644E+01
   s   1
  0.168714478E+00  0.100000000E+01
   p   3
  0.786827235E+01  0.689990666E-01
  0.188128854E+01  0.316423961E+00
  0.544249258E+00  0.744308291E+00
   p   1
  0.168714478E+00  0.100000000E+01
   d   1
  0.800000000E+00  0.100000000E+01
 
  12
   s   3
  0.187311370E+02  0.334946043E-01
  0.282539437E+01  0.234726954E+00
  0.640121692E+00  0.813757326E+00
   s   1
  0.161277759E+00  0.100000000E+01
   p   1
  0.110000000E+01  0.100000000E+01
 
  13
   s   3
  0.187311370E+02  0.334946043E-01
  0.282539437E+01  0.234726954E+00
  0.640121692E+00  0.813757326E+00
   s   1
  0.161277759E+00  0.100000000E+01
   p   1
  0.110000000E+01  0.100000000E+01
 
  14
   s   3
  0.187311370E+02  0.334946043E-01
  0.282539437E+01  0.234726954E+00
  0.640121692E+00  0.813757326E+00
   s   1
  0.161277759E+00  0.100000000E+01
   p   1
  0.110000000E+01  0.100000000E+01
 
  15
   s   3
  0.187311370E+02  0.334946043E-01
  0.282539437E+01  0.234726954E+00
  0.640121692E+00  0.813757326E+00
   s   1
  0.161277759E+00  0.100000000E+01
   p   1
  0.110000000E+01  0.100000000E+01
 
[MO]
Sym=     1a  
Ene=   -20.6880
Spin= Alpha
Occup=    2.00000
   1         0.00000240
   2        -0.00003925
   3        -0.00004125
   4        -0.00008606
   5        -0.00000386
   6         0.00000020
   7        -0.00004994
   8        -0.00000224
   9         0.00000012
  10         0.00000000
  11        -0.00000000
  12        -0.00000000
  13         0.00000000
  14         0.00000000
  15        -0.00000000
  16        -0.00009500
  17        -0.00055241
  18        -0.00061300
  19        -0.00071387
  20         0.00036625
  21         0.00000196
  22        -0.00044581
  23         0.00022872
  24         0.00000122
  25        -0.00000000
  26        -0.00000000
  27        -0.00000000
  28        -0.00000000
  29        -0.00000000
  30         0.00000000
  31         0.00001042
  32         0.00000431
  33         0.00000433
  34        -0.00009405
  35         0.00015068
  36         0.00000031
  37        -0.00005458
  38         0.00008745
  39         0.00000018
  40         0.00000000
  41         0.00000000
  42         0.00000000
  43         0.00000000
  44         0.00000000
  45        -0.00000000
  46         0.00009712
  47         0.00057521
  48         0.00063834
  49         0.00001049
  50         0.00083498
  51         0.00000053
  52         0.00000655
  53         0.00052144
  54         0.00000033
  55         0.00000000
  56        -0.00000000
  57        -0.00000000
  58        -0.00000000
  59        -0.00000000
  60        -0.00000000
  61        -0.00002628
  62         0.00003766
  63         0.00004249
  64         0.00004306
  65         0.00007217
  66         0.00000004
  67         0.00002689
  68         0.00004507
  69         0.00000002
  70         0.00000000
  71         0.00000000
  72         0.00000000
  73        -0.00000000
  74        -0.00000000
  75        -0.00000000
  76        -0.00000243
  77        -0.00000022
  78        -0.00000019
  79        -0.00000138
  80         0.00000254
  81         0.00000001
  82        -0.00000086
  83         0.00000159
  84         0.00000000
  85         0.00000000
  86         0.00000000
  87         0.00000000
  88         0.00000000
  89         0.00000000
  90        -0.00000000
  91        -0.68950011
  92        -0.01291040
  93         0.00208087
  94         0.00001516
  95        -0.00000778
  96        -0.00000004
  97         0.00001027
  98        -0.00000527
  99        -0.00000003
 100        -0.00000000
 101        -0.00000000
 102        -0.00000000
 103        -0.00000000
 104         0.00000000
 105         0.00000000
 106         0.71849039
 107         0.01345327
 108        -0.00216831
 109        -0.00000016
 110        -0.00001775
 111        -0.00000001
 112        -0.00000011
 113        -0.00001202
 114        -0.00000001
 115        -0.00000000
 116        -0.00000000
 117        -0.00000000
 118         0.00000000
 119         0.00000000
 120         0.00000000
 121        -0.00002374
 122        -0.00002651
 123         0.00000000
 124         0.00000000
 125        -0.00000000
 126         0.00000246
 127         0.00000275
 128         0.00000000
 129        -0.00000000
 130        -0.00000000
 131         0.00000319
 132         0.00000899
 133         0.00000994
 134         0.00001972
 135         0.00000986
 136         0.00000003
 137         0.00001232
 138         0.00000616
 139         0.00000002
 140        -0.00000000
 141        -0.00000000
 142        -0.00000000
 143        -0.00000000
 144        -0.00000000
 145        -0.00000000
 146        -0.00000013
 147        -0.00000014
 148        -0.00000000
 149        -0.00000000
 150         0.00000000
 151         0.00000015
 152         0.00000017
 153         0.00000000
 154         0.00000000
 155        -0.00000000
 156         0.00000724
 157         0.00000808
 158         0.00000000
 159         0.00000000
 160         0.00000000
 161         0.00000729
 162         0.00000814
 163         0.00000000
 164        -0.00000000
 165        -0.00000000
Sym=     2a  
Ene=   -20.6880
Spin= Alpha
Occup=    2.00000
   1        -0.00002468
   2         0.00003802
   3         0.00004039
   4         0.00008987
   5         0.00000208
   6        -0.00000021
   7         0.00005216
   8         0.00000121
   9        -0.00000012
  10        -0.00000000
  11        -0.00000000
  12        -0.00000000
  13        -0.00000000
  14         0.00000000
  15         0.00000000
  16         0.00007368
  17         0.00057443
  18         0.00063797
  19         0.00074343
  20        -0.00037790
  21        -0.00000204
  22         0.00046427
  23        -0.00023600
  24        -0.00000127
  25        -0.00000000
  26        -0.00000000
  27        -0.00000000
  28         0.00000000
  29         0.00000000
  30        -0.00000000
  31        -0.00001937
  32         0.00007842
  33         0.00008270
  34         0.00000513
  35         0.00000378
  36        -0.00000005
  37         0.00000298
  38         0.00000220
  39        -0.00000003
  40        -0.00000000
  41         0.00000000
  42         0.00000000
  43        -0.00000000
  44        -0.00000000
  45        -0.00000000
  46         0.00006895
  47         0.00055054
  48         0.00061147
  49         0.00001261
  50         0.00079977
  51         0.00000050
  52         0.00000788
  53         0.00049946
  54         0.00000031
  55        -0.00000000
  56         0.00000000
  57         0.00000000
  58        -0.00000000
  59        -0.00000000
  60        -0.00000000
  61        -0.00003320
  62         0.00003436
  63         0.00003897
  64         0.00004030
  65         0.00006977
  66         0.00000004
  67         0.00002517
  68         0.00004357
  69         0.00000002
  70         0.00000000
  71         0.00000000
  72        -0.00000000
  73         0.00000000
  74        -0.00000000
  75         0.00000000
  76        -0.00002867
  77        -0.00000163
  78        -0.00000120
  79         0.00000205
  80         0.00000110
  81        -0.00000000
  82         0.00000128
  83         0.00000068
  84        -0.00000000
  85        -0.00000000
  86        -0.00000000
  87         0.00000000
  88        -0.00000000
  89         0.00000000
  90         0.00000000
  91         0.71849228
  92         0.01345247
  93        -0.00216911
  94        -0.00001523
  95         0.00000771
  96         0.00000004
  97        -0.00001032
  98         0.00000523
  99         0.00000003
 100         0.00000000
 101        -0.00000000
 102        -0.00000000
 103         0.00000000
 104         0.00000000
 105        -0.00000000
 106         0.68950189
 107         0.01290969
 108        -0.00208158
 109        -0.00000028
 110        -0.00001635
 111        -0.00000001
 112        -0.00000019
 113        -0.00001107
 114        -0.00000001
 115        -0.00000000
 116        -0.00000000
 117        -0.00000000
 118         0.00000000
 119         0.00000000
 120         0.00000000
 121         0.00002437
 122         0.00002722
 123         0.00000000
 124         0.00000000
 125         0.00000000
 126         0.00004796
 127         0.00005355
 128        -0.00000000
 129         0.00000000
 130        -0.00000000
 131         0.00000297
 132         0.00000848
 133         0.00000938
 134         0.00001872
 135         0.00000957
 136         0.00000003
 137         0.00001169
 138         0.00000598
 139         0.00000002
 140         0.00000000
 141         0.00000000
 142         0.00000000
 143        -0.00000000
 144         0.00000000
 145        -0.00000000
 146        -0.00000062
 147        -0.00000069
 148         0.00000000
 149        -0.00000000
 150         0.00000000
 151         0.00000010
 152         0.00000011
 153        -0.00000000
 154        -0.00000000
 155        -0.00000000
 156         0.00000691
 157         0.00000772
 158        -0.00000000
 159         0.00000000
 160        -0.00000000
 161         0.00000696
 162         0.00000777
 163         0.00000000
 164         0.00000000
 165        -0.00000000
Sym=     3a  
Ene=   -15.6450
Spin= Alpha
Occup=    2.00000
   1         0.74721769
   2         0.01507517
   3         0.00153353
   4         0.00006476
   5         0.00014042
   6        -0.00000007
   7         0.00003758
   8         0.00008149
   9        -0.00000004
  10         0.00000000
  11         0.00000000
  12         0.00000000
  13         0.00000000
  14         0.00000000
  15        -0.00000000
  16         0.00155810
  17         0.00141174
  18         0.00153842
  19        -0.00104431
  20         0.00040174
  21         0.00000292
  22        -0.00065217
  23         0.00025088
  24         0.00000182
  25        -0.00000000
  26        -0.00000000
  27        -0.00000000
  28         0.00000000
  29        -0.00000000
  30        -0.00000000
  31         0.65589138
  32         0.01325084
  33         0.00136518
  34        -0.00008319
  35        -0.00015199
  36         0.00000006
  37        -0.00004828
  38        -0.00008821
  39         0.00000003
  40        -0.00000000
  41        -0.00000000
  42        -0.00000000
  43        -0.00000000
  44        -0.00000000
  45        -0.00000000
  46         0.00071365
  47         0.00066718
  48         0.00072753
  49         0.00078519
  50        -0.00054313
  51        -0.00000175
  52         0.00049035
  53        -0.00033919
  54        -0.00000109
  55         0.00000000
  56         0.00000000
  57         0.00000000
  58         0.00000000
  59        -0.00000000
  60         0.00000000
  61         0.00002823
  62         0.00014689
  63         0.00016294
  64         0.00023146
  65        -0.00012951
  66        -0.00000023
  67         0.00014455
  68        -0.00008088
  69        -0.00000014
  70         0.00000000
  71        -0.00000000
  72        -0.00000000
  73        -0.00000000
  74        -0.00000000
  75         0.00000000
  76         0.00086975
  77         0.00077584
  78         0.00084517
  79         0.00100907
  80        -0.00043696
  81        -0.00000143
  82         0.00063016
  83        -0.00027288
  84        -0.00000089
  85         0.00000000
  86         0.00000000
  87         0.00000000
  88        -0.00000000
  89         0.00000000
  90        -0.00000000
  91        -0.00006978
  92         0.00012470
  93         0.00012023
  94        -0.00017527
  95         0.00007928
  96         0.00000049
  97        -0.00011872
  98         0.00005370
  99         0.00000033
 100        -0.00000000
 101         0.00000000
 102        -0.00000000
 103        -0.00000000
 104        -0.00000000
 105         0.00000000
 106        -0.00003006
 107         0.00006097
 108         0.00005870
 109         0.00006013
 110        -0.00009371
 111        -0.00000017
 112         0.00004073
 113        -0.00006347
 114        -0.00000011
 115         0.00000000
 116         0.00000000
 117         0.00000000
 118        -0.00000000
 119        -0.00000000
 120         0.00000000
 121         0.00099279
 122         0.00110850
 123        -0.00000000
 124         0.00000000
 125        -0.00000000
 126         0.00086677
 127         0.00096779
 128         0.00000000
 129        -0.00000000
 130         0.00000000
 131        -0.00007425
 132        -0.00000310
 133        -0.00000186
 134         0.00000371
 135        -0.00000212
 136        -0.00000001
 137         0.00000232
 138        -0.00000133
 139        -0.00000001
 140        -0.00000000
 141        -0.00000000
 142         0.00000000
 143         0.00000000
 144         0.00000000
 145        -0.00000000
 146         0.00012870
 147         0.00014370
 148         0.00000000
 149        -0.00000000
 150        -0.00000000
 151        -0.00000118
 152        -0.00000132
 153         0.00000000
 154         0.00000000
 155         0.00000000
 156        -0.00000121
 157        -0.00000135
 158         0.00000000
 159        -0.00000000
 160        -0.00000000
 161        -0.00000120
 162        -0.00000134
 163         0.00000000
 164         0.00000000
 165        -0.00000000
Sym=     4a  
Ene=   -15.6430
Spin= Alpha
Occup=    2.00000
   1        -0.65603687
   2        -0.01308236
   3        -0.00118552
   4         0.00007136
   5         0.00014744
   6        -0.00000003
   7         0.00004142
   8         0.00008557
   9        -0.00000002
  10         0.00000000
  11         0.00000000
  12        -0.00000000
  13        -0.00000000
  14        -0.00000000
  15        -0.00000000
  16         0.00008325
  17         0.00008686
  18         0.00009492
  19         0.00070339
  20         0.00153813
  21        -0.00000042
  22         0.00043927
  23         0.00096056
  24        -0.00000026
  25         0.00000000
  26         0.00000000
  27         0.00000000
  28        -0.00000000
  29        -0.00000000
  30         0.00000000
  31         0.74736757
  32         0.01492365
  33         0.00137159
  34         0.00006809
  35         0.00012788
  36        -0.00000007
  37         0.00003952
  38         0.00007421
  39        -0.00000004
  40        -0.00000000
  41        -0.00000000
  42        -0.00000000
  43        -0.00000000
  44         0.00000000
  45         0.00000000
  46         0.00071386
  47         0.00069432
  48         0.00075775
  49         0.00088744
  50        -0.00048354
  51        -0.00000190
  52         0.00055420
  53        -0.00030197
  54        -0.00000119
  55         0.00000000
  56        -0.00000000
  57         0.00000000
  58         0.00000000
  59         0.00000000
  60         0.00000000
  61         0.00003415
  62         0.00000465
  63         0.00000445
  64         0.00006656
  65         0.00011823
  66        -0.00000005
  67         0.00004157
  68         0.00007384
  69        -0.00000003
  70        -0.00000000
  71         0.00000000
  72        -0.00000000
  73        -0.00000000
  74        -0.00000000
  75         0.00000000
  76        -0.00065040
  77        -0.00060786
  78        -0.00066285
  79        -0.00076071
  80         0.00046244
  81         0.00000111
  82        -0.00047506
  83         0.00028880
  84         0.00000069
  85        -0.00000000
  86        -0.00000000
  87        -0.00000000
  88         0.00000000
  89         0.00000000
  90         0.00000000
  91        -0.00000119
  92         0.00000680
  93         0.00000650
  94         0.00004539
  95         0.00011277
  96        -0.00000002
  97         0.00003074
  98         0.00007638
  99        -0.00000001
 100         0.00000000
 101         0.00000000
 102         0.00000000
 103         0.00000000
 104        -0.00000000
 105        -0.00000000
 106        -0.00007913
 107         0.00007003
 108         0.00006835
 109         0.00006836
 110        -0.00010480
 111        -0.00000019
 112         0.00004630
 113        -0.00007099
 114        -0.00000013
 115        -0.00000000
 116        -0.00000000
 117        -0.00000000
 118        -0.00000000
 119        -0.00000000
 120        -0.00000000
 121        -0.00086190
 122        -0.00096236
 123        -0.00000000
 124        -0.00000000
 125        -0.00000000
 126         0.00097666
 127         0.00109049
 128         0.00000000
 129         0.00000000
 130        -0.00000000
 131         0.00000042
 132         0.00000012
 133         0.00000012
 134         0.00000075
 135         0.00000033
 136        -0.00000000
 137         0.00000047
 138         0.00000021
 139        -0.00000000
 140         0.00000000
 141         0.00000000
 142         0.00000000
 143         0.00000000
 144        -0.00000000
 145        -0.00000000
 146        -0.00011077
 147        -0.00012368
 148         0.00000000
 149         0.00000000
 150        -0.00000000
 151        -0.00000001
 152        -0.00000001
 153        -0.00000000
 154        -0.00000000
 155         0.00000000
 156        -0.00000011
 157        -0.00000013
 158         0.00000000
 159        -0.00000000
 160        -0.00000000
 161        -0.00000011
 162        -0.00000012
 163        -0.00000000
 164         0.00000000
 165         0.00000000
Sym=     5a  
Ene=   -11.3540
Spin= Alpha
Occup=    2.00000
   1        -0.00205053
   2         0.00122837
   3         0.00132878
   4        -0.00133844
   5         0.00095840
   6         0.00000181
   7        -0.00077676
   8         0.00055620
   9         0.00000105
  10        -0.00000000
  11        -0.00000000
  12        -0.00000000
  13        -0.00000000
  14        -0.00000000
  15         0.00000000
  16         0.04165271
  17         0.00097064
  18         0.00018908
  19        -0.00034245
  20         0.00014288
  21         0.00000065
  22        -0.00021386
  23         0.00008923
  24         0.00000041
  25         0.00000000
  26         0.00000000
  27         0.00000000
  28         0.00000000
  29         0.00000000
  30         0.00000000
  31        -0.00164083
  32         0.00095376
  33         0.00103265
  34        -0.00117137
  35         0.00038192
  36         0.00000209
  37        -0.00067980
  38         0.00022164
  39         0.00000121
  40        -0.00000000
  41        -0.00000000
  42        -0.00000000
  43         0.00000000
  44         0.00000000
  45         0.00000000
  46         0.40187436
  47         0.00855261
  48         0.00091989
  49        -0.00130150
  50        -0.00096222
  51        -0.00000054
  52        -0.00081279
  53        -0.00060091
  54        -0.00000034
  55         0.00000000
  56        -0.00000000
  57         0.00000000
  58        -0.00000000
  59        -0.00000000
  60         0.00000000
  61         0.67394044
  62         0.01443442
  63         0.00164480
  64         0.00041663
  65        -0.00076518
  66        -0.00000055
  67         0.00026018
  68        -0.00047786
  69        -0.00000034
  70         0.00000000
  71         0.00000000
  72         0.00000000
  73         0.00000000
  74         0.00000000
  75         0.00000000
  76         0.54769796
  77         0.01154282
  78         0.00112767
  79        -0.00014256
  80         0.00199051
  81        -0.00000069
  82        -0.00008903
  83         0.00124307
  84        -0.00000043
  85        -0.00000000
  86        -0.00000000
  87        -0.00000000
  88        -0.00000000
  89        -0.00000000
  90         0.00000000
  91        -0.00001641
  92         0.00012728
  93         0.00012157
  94        -0.00014377
  95         0.00007342
  96         0.00000038
  97        -0.00009738
  98         0.00004973
  99         0.00000026
 100        -0.00000000
 101        -0.00000000
 102        -0.00000000
 103        -0.00000000
 104         0.00000000
 105         0.00000000
 106        -0.00092968
 107         0.00139944
 108         0.00135230
 109        -0.00011026
 110        -0.00165890
 111        -0.00000107
 112        -0.00007469
 113        -0.00112363
 114        -0.00000072
 115         0.00000000
 116         0.00000000
 117         0.00000000
 118        -0.00000000
 119         0.00000000
 120        -0.00000000
 121         0.00018183
 122         0.00020302
 123         0.00000000
 124         0.00000000
 125         0.00000000
 126         0.00014949
 127         0.00016691
 128        -0.00000000
 129         0.00000000
 130        -0.00000000
 131         0.26038277
 132         0.00583933
 133         0.00092771
 134         0.00134934
 135        -0.00074838
 136         0.00000300
 137         0.00084266
 138        -0.00046737
 139         0.00000187
 140        -0.00000000
 141        -0.00000000
 142        -0.00000000
 143        -0.00000000
 144         0.00000000
 145        -0.00000000
 146         0.00128010
 147         0.00142930
 148         0.00000000
 149        -0.00000000
 150         0.00000000
 151         0.00072627
 152         0.00081092
 153        -0.00000000
 154        -0.00000000
 155        -0.00000000
 156         0.00070479
 157         0.00078693
 158        -0.00000000
 159        -0.00000000
 160        -0.00000000
 161         0.00070535
 162         0.00078756
 163         0.00000000
 164         0.00000000
 165        -0.00000000
Sym=     6a  
Ene=   -11.3460
Spin= Alpha
Occup=    2.00000
   1        -0.00326567
   2         0.00192376
   3         0.00208205
   4         0.00235209
   5         0.00137316
   6        -0.00000468
   7         0.00136503
   8         0.00079691
   9        -0.00000272
  10         0.00000000
  11         0.00000000
  12         0.00000000
  13         0.00000000
  14        -0.00000000
  15        -0.00000000
  16         0.98987989
  17         0.01842852
  18        -0.00067111
  19         0.00003761
  20        -0.00003649
  21        -0.00000010
  22         0.00002349
  23        -0.00002279
  24        -0.00000006
  25         0.00000000
  26         0.00000000
  27         0.00000000
  28        -0.00000000
  29        -0.00000000
  30        -0.00000000
  31        -0.00293021
  32         0.00173587
  33         0.00187838
  34         0.00049484
  35        -0.00283577
  36        -0.00000350
  37         0.00028718
  38        -0.00164572
  39        -0.00000203
  40         0.00000000
  41         0.00000000
  42         0.00000000
  43         0.00000000
  44        -0.00000000
  45        -0.00000000
  46        -0.08333447
  47        -0.00141971
  48         0.00020315
  49         0.00017933
  50        -0.00026323
  51        -0.00000048
  52         0.00011199
  53        -0.00016439
  54        -0.00000030
  55         0.00000000
  56        -0.00000000
  57        -0.00000000
  58        -0.00000000
  59         0.00000000
  60         0.00000000
  61        -0.01040141
  62        -0.00026616
  63        -0.00007369
  64         0.00003740
  65        -0.00022612
  66        -0.00000005
  67         0.00002336
  68        -0.00014121
  69        -0.00000003
  70        -0.00000000