[Molden Format]
[N_Atoms]
                    15
[Atoms] (AU)
N1          1      7          -2.26361295     -1.80425317     -0.19278941
C2          2      6          -2.34156491      0.78911924      0.15628445
N3          3      7           0.04984317      1.85767091      0.17210936
C4          4      6           2.39798395      0.66181958     -0.11151457
C5          5      6           2.24507909     -2.07465843     -0.46744332
C6          6      6          -0.06531349     -3.17380825     -0.49091938
O7          7      8          -4.30393188      1.98623181      0.41887497
O8          8      8           4.37131099      1.88775127     -0.05325324
H9          9      1          -0.31864568     -5.18622392     -0.74521571
H10        10      1           0.09739049      3.75308006      0.42109187
H11        11      1          -3.96381183     -2.66165408     -0.21657819
C12        12      6           4.66891759     -3.49308988     -0.78439616
H13        13      1           5.70473675     -2.79266365     -2.41926684
H14        14      1           5.87951525     -3.22657360      0.85867468
H15        15      1           4.31755800     -5.50502040     -1.03203276
[Charge] (Mulliken)
 -0.743439334738851     
  0.963224485987372     
 -0.614344041122643     
  0.610565400798470     
 -0.119313898215458     
  9.125107275899058E-002
 -0.540742429767661     
 -0.579171239432792     
  0.174124990747720     
  0.340831190067154     
  0.335977138911022     
 -0.328433628788963     
  0.147754318934220     
  0.147779868572650     
  0.113936105285888     
[GTO] (AU)
   1
   s   6
  0.417351146E+04  0.183477216E-02
  0.627457911E+03  0.139946270E-01
  0.142902093E+03  0.685865518E-01
  0.402343293E+02  0.232240873E+00
  0.128202129E+02  0.469069948E+00
  0.439043701E+01  0.360455199E+00
   s   3
  0.116263619E+02 -0.114961182E+00
  0.271627981E+01 -0.169117479E+00
  0.772218397E+00  0.114585195E+01
   s   1
  0.212031497E+00  0.100000000E+01
   p   3
  0.116263619E+02  0.675797439E-01
  0.271627981E+01  0.323907296E+00
  0.772218397E+00  0.740895140E+00
   p   1
  0.212031497E+00  0.100000000E+01
   d   1
  0.800000000E+00  0.100000000E+01
 
   2
   s   6
  0.304752488E+04  0.183473713E-02
  0.457369518E+03  0.140373228E-01
  0.103948685E+03  0.688426223E-01
  0.292101553E+02  0.232184443E+00
  0.928666296E+01  0.467941348E+00
  0.316392696E+01  0.362311985E+00
   s   3
  0.786827235E+01 -0.119332420E+00
  0.188128854E+01 -0.160854152E+00
  0.544249258E+00  0.114345644E+01
   s   1
  0.168714478E+00  0.100000000E+01
   p   3
  0.786827235E+01  0.689990666E-01
  0.188128854E+01  0.316423961E+00
  0.544249258E+00  0.744308291E+00
   p   1
  0.168714478E+00  0.100000000E+01
   d   1
  0.800000000E+00  0.100000000E+01
 
   3
   s   6
  0.417351146E+04  0.183477216E-02
  0.627457911E+03  0.139946270E-01
  0.142902093E+03  0.685865518E-01
  0.402343293E+02  0.232240873E+00
  0.128202129E+02  0.469069948E+00
  0.439043701E+01  0.360455199E+00
   s   3
  0.116263619E+02 -0.114961182E+00
  0.271627981E+01 -0.169117479E+00
  0.772218397E+00  0.114585195E+01
   s   1
  0.212031497E+00  0.100000000E+01
   p   3
  0.116263619E+02  0.675797439E-01
  0.271627981E+01  0.323907296E+00
  0.772218397E+00  0.740895140E+00
   p   1
  0.212031497E+00  0.100000000E+01
   d   1
  0.800000000E+00  0.100000000E+01
 
   4
   s   6
  0.304752488E+04  0.183473713E-02
  0.457369518E+03  0.140373228E-01
  0.103948685E+03  0.688426223E-01
  0.292101553E+02  0.232184443E+00
  0.928666296E+01  0.467941348E+00
  0.316392696E+01  0.362311985E+00
   s   3
  0.786827235E+01 -0.119332420E+00
  0.188128854E+01 -0.160854152E+00
  0.544249258E+00  0.114345644E+01
   s   1
  0.168714478E+00  0.100000000E+01
   p   3
  0.786827235E+01  0.689990666E-01
  0.188128854E+01  0.316423961E+00
  0.544249258E+00  0.744308291E+00
   p   1
  0.168714478E+00  0.100000000E+01
   d   1
  0.800000000E+00  0.100000000E+01
 
   5
   s   6
  0.304752488E+04  0.183473713E-02
  0.457369518E+03  0.140373228E-01
  0.103948685E+03  0.688426223E-01
  0.292101553E+02  0.232184443E+00
  0.928666296E+01  0.467941348E+00
  0.316392696E+01  0.362311985E+00
   s   3
  0.786827235E+01 -0.119332420E+00
  0.188128854E+01 -0.160854152E+00
  0.544249258E+00  0.114345644E+01
   s   1
  0.168714478E+00  0.100000000E+01
   p   3
  0.786827235E+01  0.689990666E-01
  0.188128854E+01  0.316423961E+00
  0.544249258E+00  0.744308291E+00
   p   1
  0.168714478E+00  0.100000000E+01
   d   1
  0.800000000E+00  0.100000000E+01
 
   6
   s   6
  0.304752488E+04  0.183473713E-02
  0.457369518E+03  0.140373228E-01
  0.103948685E+03  0.688426223E-01
  0.292101553E+02  0.232184443E+00
  0.928666296E+01  0.467941348E+00
  0.316392696E+01  0.362311985E+00
   s   3
  0.786827235E+01 -0.119332420E+00
  0.188128854E+01 -0.160854152E+00
  0.544249258E+00  0.114345644E+01
   s   1
  0.168714478E+00  0.100000000E+01
   p   3
  0.786827235E+01  0.689990666E-01
  0.188128854E+01  0.316423961E+00
  0.544249258E+00  0.744308291E+00
   p   1
  0.168714478E+00  0.100000000E+01
   d   1
  0.800000000E+00  0.100000000E+01
 
   7
   s   6
  0.548467166E+04  0.183107443E-02
  0.825234946E+03  0.139501722E-01
  0.188046958E+03  0.684450781E-01
  0.529645000E+02  0.232714336E+00
  0.168975704E+02  0.470192898E+00
  0.579963534E+01  0.358520853E+00
   s   3
  0.155396162E+02 -0.110777550E+00
  0.359993359E+01 -0.148026263E+00
  0.101376175E+01  0.113076702E+01
   s   1
  0.270005823E+00  0.100000000E+01
   p   3
  0.155396162E+02  0.708742682E-01
  0.359993359E+01  0.339752839E+00
  0.101376175E+01  0.727158577E+00
   p   1
  0.270005823E+00  0.100000000E+01
   d   1
  0.800000000E+00  0.100000000E+01
 
   8
   s   6
  0.548467166E+04  0.183107443E-02
  0.825234946E+03  0.139501722E-01
  0.188046958E+03  0.684450781E-01
  0.529645000E+02  0.232714336E+00
  0.168975704E+02  0.470192898E+00
  0.579963534E+01  0.358520853E+00
   s   3
  0.155396162E+02 -0.110777550E+00
  0.359993359E+01 -0.148026263E+00
  0.101376175E+01  0.113076702E+01
   s   1
  0.270005823E+00  0.100000000E+01
   p   3
  0.155396162E+02  0.708742682E-01
  0.359993359E+01  0.339752839E+00
  0.101376175E+01  0.727158577E+00
   p   1
  0.270005823E+00  0.100000000E+01
   d   1
  0.800000000E+00  0.100000000E+01
 
   9
   s   3
  0.187311370E+02  0.334946043E-01
  0.282539437E+01  0.234726954E+00
  0.640121692E+00  0.813757326E+00
   s   1
  0.161277759E+00  0.100000000E+01
   p   1
  0.110000000E+01  0.100000000E+01
 
  10
   s   3
  0.187311370E+02  0.334946043E-01
  0.282539437E+01  0.234726954E+00
  0.640121692E+00  0.813757326E+00
   s   1
  0.161277759E+00  0.100000000E+01
   p   1
  0.110000000E+01  0.100000000E+01
 
  11
   s   3
  0.187311370E+02  0.334946043E-01
  0.282539437E+01  0.234726954E+00
  0.640121692E+00  0.813757326E+00
   s   1
  0.161277759E+00  0.100000000E+01
   p   1
  0.110000000E+01  0.100000000E+01
 
  12
   s   6
  0.304752488E+04  0.183473713E-02
  0.457369518E+03  0.140373228E-01
  0.103948685E+03  0.688426223E-01
  0.292101553E+02  0.232184443E+00
  0.928666296E+01  0.467941348E+00
  0.316392696E+01  0.362311985E+00
   s   3
  0.786827235E+01 -0.119332420E+00
  0.188128854E+01 -0.160854152E+00
  0.544249258E+00  0.114345644E+01
   s   1
  0.168714478E+00  0.100000000E+01
   p   3
  0.786827235E+01  0.689990666E-01
  0.188128854E+01  0.316423961E+00
  0.544249258E+00  0.744308291E+00
   p   1
  0.168714478E+00  0.100000000E+01
   d   1
  0.800000000E+00  0.100000000E+01
 
  13
   s   3
  0.187311370E+02  0.334946043E-01
  0.282539437E+01  0.234726954E+00
  0.640121692E+00  0.813757326E+00
   s   1
  0.161277759E+00  0.100000000E+01
   p   1
  0.110000000E+01  0.100000000E+01
 
  14
   s   3
  0.187311370E+02  0.334946043E-01
  0.282539437E+01  0.234726954E+00
  0.640121692E+00  0.813757326E+00
   s   1
  0.161277759E+00  0.100000000E+01
   p   1
  0.110000000E+01  0.100000000E+01
 
  15
   s   3
  0.187311370E+02  0.334946043E-01
  0.282539437E+01  0.234726954E+00
  0.640121692E+00  0.813757326E+00
   s   1
  0.161277759E+00  0.100000000E+01
   p   1
  0.110000000E+01  0.100000000E+01
 
[MO]
Sym=     1a  
Ene=   -20.6050
Spin= Alpha
Occup=    1.00000
   1        -0.00001174
   2        -0.00004621
   3         0.00027609
   4         0.00000296
   5        -0.00002993
   6        -0.00000413
   7         0.00005035
   8         0.00012935
   9         0.00001455
  10        -0.00001184
  11        -0.00000324
  12        -0.00005529
  13         0.00012193
  14         0.00001359
  15         0.00000150
  16        -0.00001007
  17         0.00051954
  18        -0.00078058
  19         0.00003853
  20        -0.00002003
  21        -0.00000470
  22         0.00044896
  23        -0.00027520
  24        -0.00006026
  25        -0.00064199
  26        -0.00025851
  27        -0.00005988
  28         0.00042534
  29         0.00009262
  30        -0.00005453
  31        -0.00000290
  32        -0.00005350
  33         0.00023223
  34         0.00000328
  35         0.00002479
  36         0.00000311
  37        -0.00014482
  38        -0.00010008
  39        -0.00000568
  40        -0.00008907
  41         0.00007539
  42        -0.00004833
  43         0.00008634
  44         0.00001390
  45         0.00001458
  46         0.00001745
  47         0.00003943
  48        -0.00020453
  49        -0.00000552
  50         0.00000015
  51         0.00000031
  52         0.00032515
  53         0.00032752
  54         0.00002633
  55         0.00002785
  56         0.00002451
  57         0.00002396
  58        -0.00002649
  59        -0.00000379
  60         0.00000155
  61        -0.00000490
  62        -0.00002271
  63         0.00058675
  64        -0.00000636
  65         0.00001501
  66         0.00000233
  67        -0.00025923
  68         0.00014951
  69         0.00003367
  70         0.00000740
  71        -0.00000321
  72        -0.00000108
  73        -0.00001500
  74        -0.00000253
  75         0.00000050
  76         0.00000742
  77         0.00004440
  78        -0.00038250
  79        -0.00002168
  80         0.00002018
  81         0.00000384
  82        -0.00012060
  83        -0.00031203
  84        -0.00003509
  85         0.00003891
  86        -0.00002365
  87         0.00001661
  88        -0.00001131
  89        -0.00000283
  90        -0.00000566
  91         0.99468078
  92         0.02100231
  93         0.00467494
  94         0.00135734
  95        -0.00082609
  96        -0.00018137
  97         0.00001685
  98        -0.00001206
  99        -0.00000250
 100        -0.00372411
 101        -0.00390746
 102        -0.00411224
 103        -0.00021315
 104        -0.00005242
 105         0.00004383
 106         0.00001184
 107         0.00006183
 108        -0.00038296
 109        -0.00000546
 110        -0.00000859
 111        -0.00000085
 112         0.00008504
 113         0.00002811
 114        -0.00000079
 115         0.00003152
 116         0.00003804
 117         0.00003659
 118        -0.00000256
 119        -0.00000003
 120         0.00000037
 121        -0.00000576
 122        -0.00010352
 123         0.00000594
 124         0.00000790
 125         0.00000073
 126        -0.00002079
 127        -0.00002314
 128        -0.00001345
 129         0.00004050
 130         0.00000608
 131        -0.00002933
 132        -0.00002135
 133        -0.00004062
 134        -0.00000735
 135         0.00000118
 136         0.00000151
 137         0.00000490
 138         0.00004997
 139         0.00000195
 140        -0.00000106
 141        -0.00000024
 142        -0.00000846
 143         0.00000392
 144         0.00000094
 145        -0.00000267
 146         0.00000147
 147         0.00000177
 148         0.00000407
 149         0.00000082
 150        -0.00000027
 151         0.00000128
 152        -0.00000466
 153        -0.00000040
 154         0.00000061
 155        -0.00000099
 156         0.00000128
 157        -0.00000466
 158        -0.00000029
 159         0.00000032
 160         0.00000115
 161        -0.00000100
 162         0.00000631
 163        -0.00000179
 164         0.00000006
 165         0.00000011
Sym=     1a  
Ene=   -20.6050
Spin= Beta
Occup=    1.00000
   1        -0.00001174
   2        -0.00004621
   3         0.00027609
   4         0.00000296
   5        -0.00002993
   6        -0.00000413
   7         0.00005035
   8         0.00012935
   9         0.00001455
  10        -0.00001184
  11        -0.00000324
  12        -0.00005529
  13         0.00012193
  14         0.00001359
  15         0.00000150
  16        -0.00001007
  17         0.00051954
  18        -0.00078058
  19         0.00003853
  20        -0.00002003
  21        -0.00000470
  22         0.00044896
  23        -0.00027520
  24        -0.00006026
  25        -0.00064199
  26        -0.00025851
  27        -0.00005988
  28         0.00042534
  29         0.00009262
  30        -0.00005453
  31        -0.00000290
  32        -0.00005350
  33         0.00023223
  34         0.00000328
  35         0.00002479
  36         0.00000311
  37        -0.00014482
  38        -0.00010008
  39        -0.00000568
  40        -0.00008907
  41         0.00007539
  42        -0.00004833
  43         0.00008634
  44         0.00001390
  45         0.00001458
  46         0.00001745
  47         0.00003943
  48        -0.00020453
  49        -0.00000552
  50         0.00000015
  51         0.00000031
  52         0.00032515
  53         0.00032752
  54         0.00002633
  55         0.00002785
  56         0.00002451
  57         0.00002396
  58        -0.00002649
  59        -0.00000379
  60         0.00000155
  61        -0.00000490
  62        -0.00002271
  63         0.00058675
  64        -0.00000636
  65         0.00001501
  66         0.00000233
  67        -0.00025923
  68         0.00014951
  69         0.00003367
  70         0.00000740
  71        -0.00000321
  72        -0.00000108
  73        -0.00001500
  74        -0.00000253
  75         0.00000050
  76         0.00000742
  77         0.00004440
  78        -0.00038250
  79        -0.00002168
  80         0.00002018
  81         0.00000384
  82        -0.00012060
  83        -0.00031203
  84        -0.00003509
  85         0.00003891
  86        -0.00002365
  87         0.00001661
  88        -0.00001131
  89        -0.00000283
  90        -0.00000566
  91         0.99468078
  92         0.02100231
  93         0.00467494
  94         0.00135734
  95        -0.00082609
  96        -0.00018137
  97         0.00001685
  98        -0.00001206
  99        -0.00000250
 100        -0.00372411
 101        -0.00390746
 102        -0.00411224
 103        -0.00021315
 104        -0.00005242
 105         0.00004383
 106         0.00001184
 107         0.00006183
 108        -0.00038296
 109        -0.00000546
 110        -0.00000859
 111        -0.00000085
 112         0.00008504
 113         0.00002811
 114        -0.00000079
 115         0.00003152
 116         0.00003804
 117         0.00003659
 118        -0.00000256
 119        -0.00000003
 120         0.00000037
 121        -0.00000576
 122        -0.00010352
 123         0.00000594
 124         0.00000790
 125         0.00000073
 126        -0.00002079
 127        -0.00002314
 128        -0.00001345
 129         0.00004050
 130         0.00000608
 131        -0.00002933
 132        -0.00002135
 133        -0.00004062
 134        -0.00000735
 135         0.00000118
 136         0.00000151
 137         0.00000490
 138         0.00004997
 139         0.00000195
 140        -0.00000106
 141        -0.00000024
 142        -0.00000846
 143         0.00000392
 144         0.00000094
 145        -0.00000267
 146         0.00000147
 147         0.00000177
 148         0.00000407
 149         0.00000082
 150        -0.00000027
 151         0.00000128
 152        -0.00000466
 153        -0.00000040
 154         0.00000061
 155        -0.00000099
 156         0.00000128
 157        -0.00000466
 158        -0.00000029
 159         0.00000032
 160         0.00000115
 161        -0.00000100
 162         0.00000631
 163        -0.00000179
 164         0.00000006
 165         0.00000011
Sym=     2a  
Ene=   -20.5550
Spin= Alpha
Occup=    1.00000
   1        -0.00000105
   2        -0.00000256
   3         0.00015739
   4         0.00000389
   5         0.00000530
   6         0.00000050
   7        -0.00001120
   8         0.00006306
   9         0.00000898
  10        -0.00000234
  11        -0.00000906
  12         0.00000460
  13         0.00001550
  14         0.00000251
  15        -0.00000299
  16         0.00001063
  17         0.00003786
  18         0.00003976
  19         0.00002943
  20         0.00001434
  21         0.00000035
  22        -0.00015943
  23         0.00027493
  24         0.00004500
  25         0.00003388
  26         0.00002597
  27         0.00001858
  28         0.00002826
  29         0.00000285
  30        -0.00000038
  31        -0.00001130
  32        -0.00003358
  33         0.00017527
  34        -0.00004189
  35         0.00001301
  36         0.00000395
  37         0.00024668
  38        -0.00001938
  39        -0.00001567
  40        -0.00010141
  41         0.00005725
  42        -0.00004990
  43        -0.00005517
  44        -0.00000434
  45         0.00001975
  46        -0.00001085
  47         0.00049964
  48        -0.00059630
  49        -0.00002914
  50        -0.00000127
  51         0.00000138
  52        -0.00052106
  53        -0.00055393
  54        -0.00004600
  55        -0.00059322
  56        -0.00024522
  57        -0.00006712
  58        -0.00038646
  59        -0.00001915
  60        -0.00000682
  61        -0.00000182
  62        -0.00000456
  63        -0.00016763
  64        -0.00002173
  65        -0.00001309
  66        -0.00000058
  67         0.00021190
  68        -0.00006516
  69        -0.00001995
  70        -0.00001253
  71         0.00000151
  72        -0.00001786
  73        -0.00008715
  74        -0.00001201
  75         0.00000783
  76         0.00000176
  77         0.00001853
  78         0.00010560
  79         0.00002020
  80         0.00000770
  81        -0.00000005
  82         0.00002417
  83         0.00001143
  84         0.00000024
  85         0.00003391
  86        -0.00002820
  87         0.00000253
  88        -0.00000606
  89        -0.00000270
  90        -0.00000446
  91         0.00001183
  92         0.00005291
  93        -0.00032415
  94         0.00000666
  95         0.00000076
  96        -0.00000024
  97        -0.00008264
  98         0.00002680
  99         0.00000790
 100         0.00002599
 101         0.00003214
 102         0.00003304
 103         0.00000460
 104         0.00000104
 105        -0.00000039
 106         0.99466854
 107         0.02098424
 108         0.00482076
 109        -0.00132154
 110        -0.00077462
 111        -0.00003285
 112        -0.00003277
 113         0.00000365
 114         0.00000223
 115        -0.00378712
 116        -0.00394422
 117        -0.00411207
 118         0.00020384
 119         0.00000710
 120         0.00001517
 121         0.00000640
 122         0.00000010
 123        -0.00000072
 124         0.00000989
 125         0.00000135
 126        -0.00003177
 127        -0.00004295
 128         0.00000317
 129         0.00003401
 130         0.00000434
 131        -0.00000974
 132        -0.00000372
 133        -0.00000249
 134        -0.00000398
 135        -0.00000040
 136         0.00000293
 137         0.00001773
 138        -0.00009188
 139         0.00001763
 140         0.00001316
 141         0.00000080
 142         0.00003485
 143        -0.00014688
 144        -0.00002121
 145        -0.00001663
 146         0.00001134
 147         0.00000537
 148         0.00001041
 149         0.00000274
 150         0.00000035
 151         0.00002380
 152        -0.00001828
 153         0.00000322
 154         0.00001047
 155         0.00000101
 156         0.00002383
 157        -0.00001850
 158         0.00000326
 159         0.00001040
 160         0.00000143
 161        -0.00001323
 162        -0.00007520
 163        -0.00000448
 164        -0.00000754
 165        -0.00000076
Sym=     2a  
Ene=   -20.5550
Spin= Beta
Occup=    1.00000
   1        -0.00000105
   2        -0.00000256
   3         0.00015739
   4         0.00000389
   5         0.00000530
   6         0.00000050
   7        -0.00001120
   8         0.00006306
   9         0.00000898
  10        -0.00000234
  11        -0.00000906
  12         0.00000460
  13         0.00001550
  14         0.00000251
  15        -0.00000299
  16         0.00001063
  17         0.00003786
  18         0.00003976
  19         0.00002943
  20         0.00001434
  21         0.00000035
  22        -0.00015943
  23         0.00027493
  24         0.00004500
  25         0.00003388
  26         0.00002597
  27         0.00001858
  28         0.00002826
  29         0.00000285
  30        -0.00000038
  31        -0.00001130
  32        -0.00003358
  33         0.00017527
  34        -0.00004189
  35         0.00001301
  36         0.00000395
  37         0.00024668
  38        -0.00001938
  39        -0.00001567
  40        -0.00010141
  41         0.00005725
  42        -0.00004990
  43        -0.00005517
  44        -0.00000434
  45         0.00001975
  46        -0.00001085
  47         0.00049964
  48        -0.00059630
  49        -0.00002914
  50        -0.00000127
  51         0.00000138
  52        -0.00052106
  53        -0.00055393
  54        -0.00004600
  55        -0.00059322
  56        -0.00024522
  57        -0.00006712
  58        -0.00038646
  59        -0.00001915
  60        -0.00000682
  61        -0.00000182
  62        -0.00000456
  63        -0.00016763
  64        -0.00002173
  65        -0.00001309
  66        -0.00000058
  67         0.00021190
  68        -0.00006516
  69        -0.00001995
  70        -0.00001253
  71         0.00000151
  72        -0.00001786
  73        -0.00008715
  74        -0.00001201
  75         0.00000783
  76         0.00000176
  77         0.00001853
  78         0.00010560
  79         0.00002020
  80         0.00000770
  81        -0.00000005
  82         0.00002417
  83         0.00001143
  84         0.00000024
  85         0.00003391
  86        -0.00002820
  87         0.00000253
  88        -0.00000606
  89        -0.00000270
  90        -0.00000446
  91         0.00001183
  92         0.00005291
  93        -0.00032415
  94         0.00000666
  95         0.00000076
  96        -0.00000024
  97        -0.00008264
  98         0.00002680
  99         0.00000790
 100         0.00002599
 101         0.00003214
 102         0.00003304
 103         0.00000460
 104         0.00000104
 105        -0.00000039
 106         0.99466854
 107         0.02098424
 108         0.00482076
 109        -0.00132154
 110        -0.00077462
 111        -0.00003285
 112        -0.00003277
 113         0.00000365
 114         0.00000223
 115        -0.00378712
 116        -0.00394422
 117        -0.00411207
 118         0.00020384
 119         0.00000710
 120         0.00001517
 121         0.00000640
 122         0.00000010
 123        -0.00000072
 124         0.00000989
 125         0.00000135
 126        -0.00003177
 127        -0.00004295
 128         0.00000317
 129         0.00003401
 130         0.00000434
 131        -0.00000974
 132        -0.00000372
 133        -0.00000249
 134        -0.00000398
 135        -0.00000040
 136         0.00000293
 137         0.00001773
 138        -0.00009188
 139         0.00001763
 140         0.00001316
 141         0.00000080
 142         0.00003485
 143        -0.00014688
 144        -0.00002121
 145        -0.00001663
 146         0.00001134
 147         0.00000537
 148         0.00001041
 149         0.00000274
 150         0.00000035
 151         0.00002380
 152        -0.00001828
 153         0.00000322
 154         0.00001047
 155         0.00000101
 156         0.00002383
 157        -0.00001850
 158         0.00000326
 159         0.00001040
 160         0.00000143
 161        -0.00001323
 162        -0.00007520
 163        -0.00000448
 164        -0.00000754
 165        -0.00000076
Sym=     3a  
Ene=   -15.6300
Spin= Alpha
Occup=    1.00000
   1         0.99498551
   2         0.02547698
   3        -0.00476485
   4         0.00008675
   5         0.00012265
   6         0.00001221
   7        -0.00125983
   8        -0.00099000
   9        -0.00006546
  10        -0.00330238
  11        -0.00338524
  12        -0.00328984
  13         0.00005085
  14         0.00000762
  15        -0.00001773
  16         0.00000952
  17         0.00020382
  18         0.00171215
  19         0.00002463
  20        -0.00025659
  21        -0.00003541
  22         0.00073686
  23        -0.00197405
  24        -0.00030136
  25        -0.00005036
  26        -0.00015051
  27        -0.00007320
  28        -0.00002834
  29        -0.00000509
  30        -0.00001052
  31        -0.00289238
  32        -0.00005071
  33        -0.00082592
  34         0.00005531
  35         0.00000644
  36        -0.00000205
  37        -0.00040382
  38         0.00070569
  39         0.00011516
  40         0.00006705
  41         0.00005365
  42         0.00000007
  43        -0.00001318
  44        -0.00000590
  45         0.00000912
  46        -0.00000514
  47        -0.00004479
  48         0.00142199
  49        -0.00002894
  50         0.00000151
  51         0.00000173
  52        -0.00073687
  53        -0.00063484
  54        -0.00004533
  55         0.00000661
  56         0.00002332
  57        -0.00001097
  58         0.00000106
  59        -0.00000098
  60         0.00000531
  61         0.00002647
  62         0.00013476
  63        -0.00209503
  64         0.00001302
  65         0.00003959
  66         0.00000458
  67         0.00134405
  68        -0.00097868
  69        -0.00020156
  70        -0.00002923
  71         0.00003179
  72         0.00002798
  73         0.00000798
  74         0.00000459
  75         0.00000010
  76         0.00000880
  77         0.00014169
  78         0.00274046
  79        -0.00018255
  80         0.00009856
  81         0.00002273
  82        -0.00028589
  83         0.00184300
  84         0.00026006
  85        -0.00011543
  86        -0.00001788
  87        -0.00008810
  88         0.00004440
  89         0.00000751
  90         0.00000850
  91        -0.00002990
  92        -0.00016682
  93         0.00102399
  94        -0.00003834
  95        -0.00000084
  96         0.00000191
  97         0.00033649
  98         0.00018620
  99         0.00000706
 100        -0.00003216
 101        -0.00015303
 102        -0.00012426
 103         0.00004142
 104        -0.00000004
 105        -0.00000672
 106        -0.00001507
 107        -0.00006403
 108         0.00043734
 109         0.00001126
 110        -0.00000479
 111        -0.00000125
 112        -0.00007909
 113         0.00001191
 114         0.00000579
 115        -0.00003628
 116        -0.00004822
 117        -0.00004470
 118        -0.00001032
 119        -0.00000189
 120         0.00000002
 121         0.00001289
 122         0.00044133
 123         0.00004874
 124        -0.00003439
 125        -0.00000714
 126        -0.00009589
 127         0.00000486
 128         0.00000683
 129        -0.00000045
 130        -0.00000044
 131         0.00011935
 132        -0.00001239
 133        -0.00012022
 134        -0.00006640
 135        -0.00000242
 136        -0.00000635
 137        -0.00000796
 138        -0.00051904
 139         0.00003084
 140        -0.00000874
 141        -0.00000280
 142         0.00011105
 143        -0.00006543
 144        -0.00001448
 145        -0.00001629
 146        -0.00001330
 147        -0.00002590
 148        -0.00000934
 149        -0.00000186
 150         0.00000249
 151         0.00000931
 152         0.00001436
 153         0.00000512
 154        -0.00000629
 155         0.00000817
 156         0.00000930
 157         0.00001434
 158         0.00000415
 159        -0.00000387
 160        -0.00001001
 161        -0.00000464
 162         0.00005679
 163         0.00000269
 164         0.00000718
 165         0.00000080
Sym=     3a  
Ene=   -15.6300
Spin= Beta
Occup=    1.00000
   1         0.99498551
   2         0.02547698
   3        -0.00476485
   4         0.00008675
   5         0.00012265
   6         0.00001221
   7        -0.00125983
   8        -0.00099000
   9        -0.00006546
  10        -0.00330238
  11        -0.00338524
  12        -0.00328984
  13         0.00005085
  14         0.00000762
  15        -0.00001773
  16         0.00000952
  17         0.00020382
  18         0.00171215
  19         0.00002463
  20        -0.00025659
  21        -0.00003541
  22         0.00073686
  23        -0.00197405
  24        -0.00030136
  25        -0.00005036
  26        -0.00015051
  27        -0.00007320
  28        -0.00002834
  29        -0.00000509
  30        -0.00001052
  31        -0.00289238
  32        -0.00005071
  33        -0.00082592
  34         0.00005531
  35         0.00000644
  36        -0.00000205
  37        -0.00040382
  38         0.00070569
  39         0.00011516
  40         0.00006705
  41         0.00005365
  42         0.00000007
  43        -0.00001318
  44        -0.00000590
  45         0.00000912
  46        -0.00000514
  47        -0.00004479
  48         0.00142199
  49        -0.00002894
  50         0.00000151
  51         0.00000173
  52        -0.00073687
  53        -0.00063484
  54        -0.00004533
  55         0.00000661
  56         0.00002332
  57        -0.00001097
  58         0.00000106
  59        -0.00000098
  60         0.00000531
  61         0.00002647
  62         0.00013476
  63        -0.00209503
  64         0.00001302
  65         0.00003959
  66         0.00000458
  67         0.00134405
  68        -0.00097868
  69        -0.00020156
  70        -0.00002923
  71         0.00003179
  72         0.00002798