   This run of MOLCAS is using the pymolcas driver

                             OPE
                             OPE          NMOL  CASOP  ENMOLC A   SO
                 OPE        NMOLC        AS  OP EN  MO LC     AS  OP
                OPENM       OL CA        SO  PE NM  OL CA     SOP EN
                OP EN      MO   LC       AS  OP ENMOL  CASO   PENMOL
                OP  EN     MO   LC       AS  OP EN     MO     LC ASO
               OP   E  NMOL  C  AS       OP  EN MO     LC     AS  OP
               OP  E   NMO   LC AS        OPEN  MO     LCASOP EN   M
               O  PEN   MO  LCA  SO
            OPE   NMO   L   CAS    OP
        OPENMOL  CASOP     ENMOL   CASOPE
     OPENMOLCA   SOPENMOLCASOPEN   MOLCASOPE
    OPENMOLCAS   OP           EN   MOL    CAS
    OPENMOLCAS       OP  ENM        O     LCA
    OPENMOLCAS    OPEN  MOLCASO     P  E  NMO
    OPENMOLCAS     OP               E  N  MOL
    OPENMOLCA   SO           PENM   O  L  CAS    OPEN    MO    LCAS
    OPENMOLCA   SOP           ENM   O  L  CAS   OP  EN  MOLC  AS   O
    OPENMOLCA   SOPE           NM      O  LCA   S      OP  EN MO
    OPENMOLC                AS         O  PEN   M      OL  CA  SOPE
    OPENMO        LCASOPE  NMOL        C  ASO   P      ENMOLC     AS
    OPE     NMO      LCA  SO     P     E   NM   OL  CA SO  PE N   MO
          OPENMOLCA            SOPE   NMO        LCAS  O    P  ENMO
     OPENMOLCASOPENMOLCASOPENMOLCASOPENMOLCA
        OPENMOLCASOPENMOLCASOPENMOLCASOPE
            OPENMOLCASOPENMOLCASOPENM
               OPENMOLCASOPENMOLCA        version: 22.02
                   OPENMOLCASO
                       OPE                tag: 1-g9a97a9f70

 OpenMolcas is free software; you can redistribute it and/or modify it
 under the terms of the GNU Lesser General Public License version 2.1.
 OpenMolcas is distributed in the hope that it will be useful, but it
 is provided "as is" and without any express or implied warranties.
 For more details see the full text of the license in the file
 LICENSE or in <http://www.gnu.org/licenses/>.

                 Copyright (C) The OpenMolcas Authors
           For the author list and the recommended citation,
                   consult the file CONTRIBUTORS.md

           *************************************************
           * pymolcas version py2.06                       *
           *   build bf02a7b0d12655ada6bc2259076d6962      *
           *   (after the EMIL interpreter by V. Veryazov) *
           *************************************************

configuration info
------------------
Host name: robb (Linux)
C Compiler ID: Intel
C flags: -std=gnu99 -gcc-sys
Fortran Compiler ID: Intel
Fortran flags: -fpp -i8 -r8 -heap-arrays
Definitions: _MOLCAS_;_I8_;_LINUX_
Parallel: OFF (GA=OFF)


   --------------------------------------------------------------------------------------------------
  |
  |           Project: cas2
  |    Submitted from: /scr/marlenne/_cas2/Work
  |      Scratch area: /scr/marlenne/_cas2/Work
  |   Save outputs to: /home/marlenne/thymine/Thymine/MOLCAS/3.Ground_State/1.GS_non-planar/try2/orbs
  |            Molcas: /soft/OPENMOLCAS/hdf5_wfa_intel
  |
  | Scratch area is empty
  |
  |    MOLCAS_DRIVER = /soft/bin/pymolcas
  |       MOLCAS_FIM = 1
  |    MOLCAS_MAXMEM = 8000
  |    MOLCAS_NPROCS = 1
  |     MOLCAS_PRINT = 3
  |    MOLCAS_SOURCE = /soft/OPENMOLCAS/hdf5_wfa_intel/
  | MOLCAS_STRUCTURE = 0
  |
   --------------------------------------------------------------------------------------------------

++ ---------   Input file   ---------

&GATEWAY
    coord=$HomeDir/mp2.Opt.xyz
    basis=6-31G**
    group=nosymm
    RICD

&SEWARD
DoAnal

>>> COPY $HomeDir/cas.RasOrb INPORB

&RASSCF
Title
 State Average (SA) CASSCF using Cs Symm.
Spin
 1
Nactel
 14 0 0
Inactive
 26
Ras2
 10
CiRoot
 5 5 1
Lumorb
Levs
 0.8
Thrs
1.0D-06 1.0D-02 1.0D-02
Alter
2
 1 25 28
 1 36 40
End of Input

-- ----------------------------------

--- Start Module: gateway at Fri May  5 16:44:50 2023 ---
 
()()()()()()()()()()()()()()()()()()()()()()()()()()()()()()()()()()()()()()()()()()()()()()()()()()

                                              &GATEWAY

                                   only a single process is used
                       available to each process: 4.0 GB of memory, 1 thread?
                                             pid: 14897
()()()()()()()()()()()()()()()()()()()()()()()()()()()()()()()()()()()()()()()()()()()()()()()()()()
 
 
 
 Basis Set     1 Label: N.6-31G**
 Basis set is read from library:basis_library 
 Basis Set Reference(s):
     P.C. Hariharan, J.A. Pople. Theor. Chim. Acta 28 (1973) 213-222. doi:10.1007/bf00533485
     NITROGEN (10s,4p,1d) -> [3s,2p,1d]
 
 
 
 
 Basis Set     2 Label: C.6-31G**
 Basis set is read from library:basis_library 
 Basis Set Reference(s):
     P.C. Hariharan, J.A. Pople. Theor. Chim. Acta 28 (1973) 213-222. doi:10.1007/bf00533485
     CARBON (10s,4p,1d) -> [3s,2p,1d]
 
 
 
 
 Basis Set     3 Label: N.6-31G**
 Basis set is read from library:basis_library 
 Basis Set Reference(s):
     P.C. Hariharan, J.A. Pople. Theor. Chim. Acta 28 (1973) 213-222. doi:10.1007/bf00533485
     NITROGEN (10s,4p,1d) -> [3s,2p,1d]
 
 
 
 
 Basis Set     4 Label: C.6-31G**
 Basis set is read from library:basis_library 
 Basis Set Reference(s):
     P.C. Hariharan, J.A. Pople. Theor. Chim. Acta 28 (1973) 213-222. doi:10.1007/bf00533485
     CARBON (10s,4p,1d) -> [3s,2p,1d]
 
 
 
 
 Basis Set     5 Label: O.6-31G**
 Basis set is read from library:basis_library 
 Basis Set Reference(s):
     P.C. Hariharan, J.A. Pople. Theor. Chim. Acta 28 (1973) 213-222. doi:10.1007/bf00533485
     OXYGEN (10s,4p,1d) -> [3s,2p,1d]
 
 
 
 
 Basis Set     6 Label: H.6-31G**
 Basis set is read from library:basis_library 
 Basis Set Reference(s):
     P.C. Hariharan, J.A. Pople. Theor. Chim. Acta 28 (1973) 213-222. doi:10.1007/bf00533485
     HYDROGEN (4s,1p) -> [2s,1p]
 
 
 
 
 Basis Set     7 Label: C.6-31G**
 Basis set is read from library:basis_library 
 Basis Set Reference(s):
     P.C. Hariharan, J.A. Pople. Theor. Chim. Acta 28 (1973) 213-222. doi:10.1007/bf00533485
     CARBON (10s,4p,1d) -> [3s,2p,1d]
 
 
 
 
 Basis Set     8 Label: H.6-31G**
 Basis set is read from library:basis_library 
 Basis Set Reference(s):
     P.C. Hariharan, J.A. Pople. Theor. Chim. Acta 28 (1973) 213-222. doi:10.1007/bf00533485
     HYDROGEN (4s,1p) -> [2s,1p]
 
 
 
 
 Basis Set    10 Label: N.6-31G**....acCD-aux-basis.
 On-the-fly basis set generation
 
 
 Basis Set    11 Label: N.6-31G**....acCD-aux-basis.
 On-the-fly basis set generation
 
 
 Basis Set    12 Label: C.6-31G**....acCD-aux-basis.
 On-the-fly basis set generation
 
 
 Basis Set    13 Label: C.6-31G**....acCD-aux-basis.
 On-the-fly basis set generation
 
 
 Basis Set    14 Label: N.6-31G**....acCD-aux-basis.
 On-the-fly basis set generation
 
 
 Basis Set    15 Label: N.6-31G**....acCD-aux-basis.
 On-the-fly basis set generation
 
 
 Basis Set    16 Label: C.6-31G**....acCD-aux-basis.
 On-the-fly basis set generation
 
 
 Basis Set    17 Label: C.6-31G**....acCD-aux-basis.
 On-the-fly basis set generation
 
 
 Basis Set    18 Label: O.6-31G**....acCD-aux-basis.
 On-the-fly basis set generation
 
 
 Basis Set    19 Label: O.6-31G**....acCD-aux-basis.
 On-the-fly basis set generation
 
 
 Basis Set    20 Label: H.6-31G**....acCD-aux-basis.
 On-the-fly basis set generation
 
 
 Basis Set    21 Label: C.6-31G**....acCD-aux-basis.
 On-the-fly basis set generation
 
 
 Basis Set    22 Label: C.6-31G**....acCD-aux-basis.
 On-the-fly basis set generation
 
 
 Basis Set    23 Label: H.6-31G**....acCD-aux-basis.
 On-the-fly basis set generation
 
  Weights used for alignment and distance                     
  mat. size =    15x    1
       14.0030740044299993
       12.0000000000000000
       14.0030740044299993
       12.0000000000000000
       12.0000000000000000
       12.0000000000000000
       15.9949146195700003
       15.9949146195700003
        1.0078250322300000
        1.0078250322300000
        1.0078250322300000
       12.0000000000000000
        1.0078250322300000
        1.0078250322300000
        1.0078250322300000
 
 
++    Symmetry information:
      ---------------------
 
                    Character Table for C1 
 
                             E  
                    a        1  x, y, xy, Rz, z, xz, Ry, yz, Rx, I
--
 
 
++    Basis set information:
      ----------------------
 
 
      Basis set label: N.6-31G**.........
 
      Electronic valence basis set:
      ------------------
      Associated Effective Charge   7.000000 au
      Associated Actual Charge      7.000000 au
      Nuclear Model: Point charge
 
      Shell  nPrim  nBasis  Cartesian Spherical Contaminant
         s      10       3        X                  
         p       4       2        X                  
         d       1       1        X                  
 
       Label   Cartesian Coordinates / Bohr
 
 N1                -2.2636129548       -1.8042531695       -0.1927894057
 
 
      Basis set label: C.6-31G**.........
 
      Electronic valence basis set:
      ------------------
      Associated Effective Charge   6.000000 au
      Associated Actual Charge      6.000000 au
      Nuclear Model: Point charge
 
      Shell  nPrim  nBasis  Cartesian Spherical Contaminant
         s      10       3        X                  
         p       4       2        X                  
         d       1       1        X                  
 
       Label   Cartesian Coordinates / Bohr
 
 C2                -2.3415649134        0.7891192428        0.1562844512
 
 
      Basis set label: N.6-31G**.........
 
      Electronic valence basis set:
      ------------------
      Associated Effective Charge   7.000000 au
      Associated Actual Charge      7.000000 au
      Nuclear Model: Point charge
 
      Shell  nPrim  nBasis  Cartesian Spherical Contaminant
         s      10       3        X                  
         p       4       2        X                  
         d       1       1        X                  
 
       Label   Cartesian Coordinates / Bohr
 
 N3                 0.0498431706        1.8576709082        0.1721093579
 
 
      Basis set label: C.6-31G**.........
 
      Electronic valence basis set:
      ------------------
      Associated Effective Charge   6.000000 au
      Associated Actual Charge      6.000000 au
      Nuclear Model: Point charge
 
      Shell  nPrim  nBasis  Cartesian Spherical Contaminant
         s      10       3        X                  
         p       4       2        X                  
         d       1       1        X                  
 
       Label   Cartesian Coordinates / Bohr
 
 C4                 2.3979839529        0.6618195810       -0.1115145716
 C5                 2.2450790879       -2.0746584270       -0.4674433156
 C6                -0.0653134891       -3.1738082544       -0.4909193832
 
 
      Basis set label: O.6-31G**.........
 
      Electronic valence basis set:
      ------------------
      Associated Effective Charge   8.000000 au
      Associated Actual Charge      8.000000 au
      Nuclear Model: Point charge
 
      Shell  nPrim  nBasis  Cartesian Spherical Contaminant
         s      10       3        X                  
         p       4       2        X                  
         d       1       1        X                  
 
       Label   Cartesian Coordinates / Bohr
 
 O7                -4.3039318834        1.9862318111        0.4188749731
 O8                 4.3713109944        1.8877512663       -0.0532532381
 
 
      Basis set label: H.6-31G**.........
 
      Electronic valence basis set:
      ------------------
      Associated Effective Charge   1.000000 au
      Associated Actual Charge      1.000000 au
      Nuclear Model: Point charge
 
      Shell  nPrim  nBasis  Cartesian Spherical Contaminant
         s       4       2        X                  
         p       1       1        X                  
 
       Label   Cartesian Coordinates / Bohr
 
 H9                -0.3186456758       -5.1862239217       -0.7452157082
 H10                0.0973904940        3.7530800629        0.4210918675
 H11               -3.9638118324       -2.6616540754       -0.2165781852
 
 
      Basis set label: C.6-31G**.........
 
      Electronic valence basis set:
      ------------------
      Associated Effective Charge   6.000000 au
      Associated Actual Charge      6.000000 au
      Nuclear Model: Point charge
 
      Shell  nPrim  nBasis  Cartesian Spherical Contaminant
         s      10       3        X                  
         p       4       2        X                  
         d       1       1        X                  
 
       Label   Cartesian Coordinates / Bohr
 
 C12                4.6689175934       -3.4930898798       -0.7843961559
 
 
      Basis set label: H.6-31G**.........
 
      Electronic valence basis set:
      ------------------
      Associated Effective Charge   1.000000 au
      Associated Actual Charge      1.000000 au
      Nuclear Model: Point charge
 
      Shell  nPrim  nBasis  Cartesian Spherical Contaminant
         s       4       2        X                  
         p       1       1        X                  
 
       Label   Cartesian Coordinates / Bohr
 
 H13                5.7047367457       -2.7926636475       -2.4192668422
 H14                5.8795152472       -3.2265736030        0.8586746758
 H15                4.3175579993       -5.5050203977       -1.0320327647
--
 
 
++    Molecular structure info:
      -------------------------
 
                    ************************************************ 
                    **** Cartesian Coordinates / Bohr, Angstrom **** 
                    ************************************************ 
 
     Center  Label                x              y              z                     x              y              z
        1      N1              -2.263613      -1.804253      -0.192789             -1.197852      -0.954770      -0.102020
        2      C2              -2.341565       0.789119       0.156284             -1.239103       0.417584       0.082702
        3      N3               0.049843       1.857671       0.172109              0.026376       0.983037       0.091076
        4      C4               2.397984       0.661820      -0.111515              1.268958       0.350220      -0.059011
        5      C5               2.245079      -2.074658      -0.467443              1.188045      -1.097862      -0.247360
        6      C6              -0.065313      -3.173808      -0.490919             -0.034562      -1.679507      -0.259783
        7      O7              -4.303932       1.986232       0.418875             -2.277543       1.051069       0.221659
        8      O8               4.371311       1.887751      -0.053253              2.313198       0.998955      -0.028180
        9      H9              -0.318646      -5.186224      -0.745216             -0.168620      -2.744432      -0.394351
       10      H10              0.097390       3.753080       0.421092              0.051537       1.986044       0.222832
       11      H11             -3.963812      -2.661654      -0.216578             -2.097559      -1.408487      -0.114608
       12      C12              4.668918      -3.493090      -0.784396              2.470685      -1.848464      -0.415085
       13      H13              5.704737      -2.792664      -2.419267              3.018817      -1.477814      -1.280221
       14      H14              5.879515      -3.226574       0.858675              3.111305      -1.707429       0.454391
       15      H15              4.317558      -5.505020      -1.032033              2.284753      -2.913131      -0.546128
 
                    *************************************** 
                    *    InterNuclear Distances / Bohr    * 
                    *************************************** 
 
               1 N1            2 C2            3 N3            4 C4            5 C5            6 C6    
    1 N1       0.000000
    2 C2       2.617921        0.000000
    3 N3       4.346829        2.619329        0.000000
    4 C4       5.274335        4.748815        2.650334        0.000000
    5 C5       4.525136        5.443121        4.548769        2.763761        0.000000
    6 C6       2.607122        4.615733        5.076283        4.574257        2.558632        0.000000
    7 O7       4.347966        2.313637        4.362657        6.852084        7.756670        6.739408
    8 O8       7.594247        6.805410        4.327445        2.323859        4.515873        6.744967
    9 H9       3.940279        6.372569        7.112927        6.479295        4.041248        2.044177
   10 H10      6.069196        3.847556        1.912284        3.890025        6.274121        6.988563
   11 H11      1.904305        3.831259        6.056798        7.178368        6.241620        3.941555
   12 C12      7.159759        8.268559        7.133119        4.782592        2.826199        4.754052
   13 H13      8.332392        9.176361        7.766509        5.309782        4.036629        6.095677
   14 H14      8.333013        9.176345        7.765693        5.308665        4.036660        6.096325
   15 H15      7.596830        9.239708        8.594915        6.523958        4.047384        4.993688
 
               7 O7            8 O8            9 H9           10 H10          11 H11          12 C12   
    7 O7       0.000000
    8 O8       8.688639        0.000000
    9 H9       8.287444        8.515611        0.000000
   10 H10      4.742720        4.687307        9.024661        0.000000
   11 H11      4.703438        9.497265        4.465439        7.618976        0.000000
   12 C12     10.582195        5.438436        5.267260        8.652112        8.691244        0.000000
   13 H13     11.448421        5.411315        6.694230        9.075061        9.917148        2.058232
   14 H14     11.448553        5.409493        6.695513        9.074140        9.917983        2.058218
   15 H15     11.513213        7.457478        4.655994       10.277831        8.793792        2.057339
 
              13 H13          14 H14          15 H15   
   13 H13      0.000000
   14 H14      3.311152        0.000000
   15 H15      3.347471        3.347507        0.000000
 
                    ******************************************* 
                    *    InterNuclear Distances / Angstrom    * 
                    ******************************************* 
 
               1 N1            2 C2            3 N3            4 C4            5 C5            6 C6    
    1 N1       0.000000
    2 C2       1.385344        0.000000
    3 N3       2.300243        1.386089        0.000000
    4 C4       2.791058        2.512965        1.402496        0.000000
    5 C5       2.394599        2.880375        2.407105        1.462520        0.000000
    6 C6       1.379629        2.442541        2.686253        2.420592        1.353969        0.000000
    7 O7       2.300845        1.224324        2.308619        3.625967        4.104653        3.566341
    8 O8       4.018702        3.601268        2.289985        1.229733        2.389697        3.569283
    9 H9       2.085106        3.372218        3.763999        3.428695        2.138536        1.081732
   10 H10      3.211680        2.036039        1.011937        2.058512        3.320122        3.698189
   11 H11      1.007715        2.027415        3.205120        3.798629        3.302923        2.085781
   12 C12      3.788781        4.375533        3.774684        2.530838        1.495560        2.515736
   13 H13      4.409312        4.855921        4.109860        2.809816        2.136092        3.225693
   14 H14      4.409641        4.855912        4.109428        2.809225        2.136108        3.226036
   15 H15      4.020069        4.889443        4.548233        3.452330        2.141783        2.642546
 
               7 O7            8 O8            9 H9           10 H10          11 H11          12 C12   
    7 O7       0.000000
    8 O8       4.597830        0.000000
    9 H9       4.385527        4.506267        0.000000
   10 H10      2.509740        2.480416        4.775645        0.000000
   11 H11      2.488952        5.025736        2.363009        4.031789        0.000000
   12 C12      5.599857        2.877897        2.787314        4.578500        4.599208        0.000000
   13 H13      6.058243        2.863544        3.542434        4.802315        5.247929        1.089170
   14 H14      6.058313        2.862580        3.543113        4.801828        5.248371        1.089162
   15 H15      6.092530        3.946327        2.463846        5.438794        4.653475        1.088697
 
              13 H13          14 H14          15 H15   
   13 H13      0.000000
   14 H14      1.752186        0.000000
   15 H15      1.771405        1.771425        0.000000
 
                    ************************************** 
                    *    Valence Bond Angles / Degree    * 
                    ************************************** 
                          Atom centers                 Phi
                      2 C2       1 N1       6 C6       124.11
                      2 C2       1 N1      11 H11      114.90
                      6 C6       1 N1      11 H11      120.99
                      1 N1       2 C2       3 N3       112.19
                      1 N1       2 C2       7 O7       123.57
                      3 N3       2 C2       7 O7       124.24
                      2 C2       3 N3       4 C4       128.62
                      2 C2       3 N3      10 H10      115.33
                      4 C4       3 N3      10 H10      116.05
                      3 N3       4 C4       5 C5       114.30
                      3 N3       4 C4       8 O8       120.77
                      5 C5       4 C4       8 O8       124.93
                      4 C4       5 C5       6 C6       118.46
                      4 C4       5 C5      12 C12      117.64
                      6 C6       5 C5      12 C12      123.90
                      1 N1       6 C6       5 C5       122.32
                      1 N1       6 C6       9 H9       115.27
                      5 C5       6 C6       9 H9       122.41
                      5 C5      12 C12     13 H13      110.48
                      5 C5      12 C12     14 H14      110.48
                      5 C5      12 C12     15 H15      110.97
                     13 H13     12 C12     14 H14      107.10
                     13 H13     12 C12     15 H15      108.85
                     14 H14     12 C12     15 H15      108.85
 
           ***************************************************************
           *              Valence Dihedral Angles / Degree               *
           ***************************************************************
                    Atom centers                       Phi1     Phi2     Theta 
           6 C6       1 N1       2 C2       7 O7        124.11   123.57   180.00
           2 C2       1 N1       6 C6       5 C5        124.11   122.32    -0.02
           2 C2       1 N1       6 C6       9 H9        124.11   115.27   180.00
           3 N3       2 C2       1 N1       6 C6        112.19   124.11     0.00
           3 N3       2 C2       1 N1      11 H11       112.19   114.90   179.98
           7 O7       2 C2       1 N1      11 H11       123.57   114.90    -0.02
           1 N1       2 C2       3 N3       4 C4        112.19   128.62     0.01
           1 N1       2 C2       3 N3      10 H10       112.19   115.33   179.98
           7 O7       2 C2       3 N3      10 H10       124.24   115.33    -0.01
           4 C4       3 N3       2 C2       7 O7        128.62   124.24  -179.98
           2 C2       3 N3       4 C4       5 C5        128.62   114.30    -0.01
           2 C2       3 N3       4 C4       8 O8        128.62   120.77   179.98
           5 C5       4 C4       3 N3      10 H10       114.30   116.05  -179.98
           8 O8       4 C4       3 N3      10 H10       120.77   116.05     0.02
           3 N3       4 C4       5 C5       6 C6        114.30   118.46    -0.01
           3 N3       4 C4       5 C5      12 C12       114.30   117.64  -179.99
           8 O8       4 C4       5 C5      12 C12       124.93   117.64     0.01
           6 C6       5 C5       4 C4       8 O8        118.46   124.93   180.00
           4 C4       5 C5       6 C6       9 H9        118.46   122.41   180.00
           4 C4       5 C5      12 C12     13 H13       117.64   110.48   -59.21
           4 C4       5 C5      12 C12     14 H14       117.64   110.48    59.12
           4 C4       5 C5      12 C12     15 H15       117.64   110.97   179.96
           6 C6       5 C5      12 C12     13 H13       123.90   110.48   120.80
           6 C6       5 C5      12 C12     14 H14       123.90   110.48  -120.87
           6 C6       5 C5      12 C12     15 H15       123.90   110.97    -0.03
           5 C5       6 C6       1 N1      11 H11       122.32   120.99   180.00
           9 H9       6 C6       1 N1      11 H11       115.27   120.99     0.02
           1 N1       6 C6       5 C5       4 C4        122.32   118.46     0.02
           1 N1       6 C6       5 C5      12 C12       122.32   123.90  -179.99
           9 H9       6 C6       5 C5      12 C12       122.41   123.90    -0.01
--
 
 
++    Isotope specification:
      ----------------------
 
 Center
 Type   Z    A    mass (Da)
 --------------------------
    1   7   14    14.003074
    2   6   12    12.000000
    3   7   14    14.003074
    4   6   12    12.000000
    5   8   16    15.994915
    6   1    1     1.007825
    7   6   12    12.000000
    8   1    1     1.007825
--
 
 
++    Rigid rotor info:
      -----------------
 
 
                    Total mass (a) : 126.04293
 
                    Center of mass 
                          X          Y   
                       0.51370   -0.32145   -0.14261
 
                    Reference system based on center of mass
                    Coordinates and Masses of Atoms, in au and A
                          X          Y          Z        Mass
                      -2.77731   -1.48280   -0.05018   14.00307
                      -2.85526    1.11057    0.29890   12.00000
                      -0.46385    2.17912    0.31472   14.00307
                       1.88429    0.98327    0.03110   12.00000
                       1.73138   -1.75321   -0.32483   12.00000
                      -0.57901   -2.85236   -0.34831   12.00000
                      -4.81763    2.30768    0.56149   15.99491
                       3.85761    2.20920    0.08936   15.99491
                      -0.83234   -4.86477   -0.60260    1.00783
                      -0.41631    4.07453    0.56370    1.00783
                      -4.47751   -2.34020   -0.07397    1.00783
                       4.15522   -3.17164   -0.64178   12.00000
                       5.19104   -2.47121   -2.27666    1.00783
                       5.36582   -2.90512    1.00129    1.00783
                       3.80386   -5.18357   -0.88942    1.00783
 
                    The Moment of Inertia Tensor / au
                                     X          Y        Z     
                    X             0.1190E+07
                    Y             0.4086E+06 0.2229E+07
                    Z             0.1696E+06-0.1730E+06 0.3335E+07
 
                    The Principal Axes and Moments of Inertia (au)
                    Eigenvalues : 0.3367E+07 0.2359E+07 0.1029E+07
                                     X'         Y'       Z'    
                    Eigenvectors:
                    X             0.5240E-01 0.3419E+00 0.9383E+00
                    Y            -0.1316E+00 0.9337E+00-0.3329E+00
                    Z             0.9899E+00 0.1060E+00-0.9392E-01
 
                    The Rotational Constants
                            (cm-1)            (GHz)
                              0.033            0.977
                              0.047            1.395
                              0.107            3.199
 
 
                    *******************************************
                    *                                         *
                    * R I G I D - R O T O R   A N A L Y S I S *
                    *                                         *
                    *******************************************
 
                    j(Max):  5
 
                    Rotor Type: Linear Rotor
                    Asymmetry parameter: -0.624
                    Prolate = -1
                    Oblate  =  1
 
 
                    Rotational energies / cm-1
 
                    E(J= 0,kappa= 0) =        0.000
 
                    E(J= 1,kappa=-1) =        0.079
                    E(J= 1,kappa= 0) =        0.139
                    E(J= 1,kappa= 1) =        0.153
 
                    E(J= 2,kappa=-2) =        0.235
                    E(J= 2,kappa=-1) =        0.284
                    E(J= 2,kappa= 0) =        0.325
                    E(J= 2,kappa= 1) =        0.506
                    E(J= 2,kappa= 2) =        0.508
 
                    E(J= 3,kappa=-3) =        0.464
                    E(J= 3,kappa=-2) =        0.499
                    E(J= 3,kappa=-1) =        0.582
                    E(J= 3,kappa= 0) =        0.743
                    E(J= 3,kappa= 1) =        0.754
                    E(J= 3,kappa= 2) =        1.080
                    E(J= 3,kappa= 3) =        1.080
 
                    E(J= 4,kappa=-4) =        0.762
                    E(J= 4,kappa=-3) =        0.784
                    E(J= 4,kappa=-2) =        0.921
                    E(J= 4,kappa=-1) =        1.058
                    E(J= 4,kappa= 0) =        1.087
                    E(J= 4,kappa= 1) =        1.400
                    E(J= 4,kappa= 2) =        1.402
                    E(J= 4,kappa= 3) =        1.867
                    E(J= 4,kappa= 4) =        1.867
 
                    E(J= 5,kappa=-5) =        1.124
                    E(J= 5,kappa=-4) =        1.137
                    E(J= 5,kappa=-3) =        1.340
                    E(J= 5,kappa=-2) =        1.449
                    E(J= 5,kappa=-1) =        1.511
                    E(J= 5,kappa= 0) =        1.801
                    E(J= 5,kappa= 1) =        1.807
                    E(J= 5,kappa= 2) =        2.267
                    E(J= 5,kappa= 3) =        2.267
                    E(J= 5,kappa= 4) =        2.867
                    E(J= 5,kappa= 5) =        2.867
--
 
 
++    Primitive basis info:
      ---------------------
 
 
                    *****************************************************
                    ******** Primitive Basis Functions (Valence) ********
                    *****************************************************
 
 
 Basis set:N.6-31G**.........                                                              
 
                  Type         
                   s
           No.      Exponent    Contraction Coefficients
            1  0.417351146D+04   0.001835   0.000000   0.000000
            2  0.627457911D+03   0.013995   0.000000   0.000000
            3  0.142902093D+03   0.068587   0.000000   0.000000
            4  0.402343293D+02   0.232241   0.000000   0.000000
            5  0.128202129D+02   0.469070   0.000000   0.000000
            6  0.116263619D+02   0.000000  -0.114961   0.000000
            7  0.439043701D+01   0.360455   0.000000   0.000000
            8  0.271627981D+01   0.000000  -0.169117   0.000000
            9  0.772218397D+00   0.000000   1.145852   0.000000
           10  0.212031497D+00   0.000000   0.000000   1.000000
 
                  Type         
                   p
           No.      Exponent    Contraction Coefficients
           11  0.116263619D+02   0.067580   0.000000
           12  0.271627981D+01   0.323907   0.000000
           13  0.772218397D+00   0.740895   0.000000
           14  0.212031497D+00   0.000000   1.000000
 
                  Type         
                   d
           No.      Exponent    Contraction Coefficients
           15  0.800000000D+00   1.000000
 
 
 Basis set:C.6-31G**.........                                                              
 
                  Type         
                   s
           No.      Exponent    Contraction Coefficients
           16  0.304752488D+04   0.001835   0.000000   0.000000
           17  0.457369518D+03   0.014037   0.000000   0.000000
           18  0.103948685D+03   0.068843   0.000000   0.000000
           19  0.292101553D+02   0.232184   0.000000   0.000000
           20  0.928666296D+01   0.467941   0.000000   0.000000
           21  0.786827235D+01   0.000000  -0.119332   0.000000
           22  0.316392696D+01   0.362312   0.000000   0.000000
           23  0.188128854D+01   0.000000  -0.160854   0.000000
           24  0.544249258D+00   0.000000   1.143456   0.000000
           25  0.168714478D+00   0.000000   0.000000   1.000000
 
                  Type         
                   p
           No.      Exponent    Contraction Coefficients
           26  0.786827235D+01   0.068999   0.000000
           27  0.188128854D+01   0.316424   0.000000
           28  0.544249258D+00   0.744308   0.000000
           29  0.168714478D+00   0.000000   1.000000
 
                  Type         
                   d
           No.      Exponent    Contraction Coefficients
           30  0.800000000D+00   1.000000
 
 
 Basis set:N.6-31G**.........                                                              
 
                  Type         
                   s
           No.      Exponent    Contraction Coefficients
           31  0.417351146D+04   0.001835   0.000000   0.000000
           32  0.627457911D+03   0.013995   0.000000   0.000000
           33  0.142902093D+03   0.068587   0.000000   0.000000
           34  0.402343293D+02   0.232241   0.000000   0.000000
           35  0.128202129D+02   0.469070   0.000000   0.000000
           36  0.116263619D+02   0.000000  -0.114961   0.000000
           37  0.439043701D+01   0.360455   0.000000   0.000000
           38  0.271627981D+01   0.000000  -0.169117   0.000000
           39  0.772218397D+00   0.000000   1.145852   0.000000
           40  0.212031497D+00   0.000000   0.000000   1.000000
 
                  Type         
                   p
           No.      Exponent    Contraction Coefficients
           41  0.116263619D+02   0.067580   0.000000
           42  0.271627981D+01   0.323907   0.000000
           43  0.772218397D+00   0.740895   0.000000
           44  0.212031497D+00   0.000000   1.000000
 
                  Type         
                   d
           No.      Exponent    Contraction Coefficients
           45  0.800000000D+00   1.000000
 
 
 Basis set:C.6-31G**.........                                                              
 
                  Type         
                   s
           No.      Exponent    Contraction Coefficients
           46  0.304752488D+04   0.001835   0.000000   0.000000
           47  0.457369518D+03   0.014037   0.000000   0.000000
           48  0.103948685D+03   0.068843   0.000000   0.000000
           49  0.292101553D+02   0.232184   0.000000   0.000000
           50  0.928666296D+01   0.467941   0.000000   0.000000
           51  0.786827235D+01   0.000000  -0.119332   0.000000
           52  0.316392696D+01   0.362312   0.000000   0.000000
           53  0.188128854D+01   0.000000  -0.160854   0.000000
           54  0.544249258D+00   0.000000   1.143456   0.000000
           55  0.168714478D+00   0.000000   0.000000   1.000000
 
                  Type         
                   p
           No.      Exponent    Contraction Coefficients
           56  0.786827235D+01   0.068999   0.000000
           57  0.188128854D+01   0.316424   0.000000
           58  0.544249258D+00   0.744308   0.000000
           59  0.168714478D+00   0.000000   1.000000
 
                  Type         
                   d
           No.      Exponent    Contraction Coefficients
           60  0.800000000D+00   1.000000
 
 
 Basis set:O.6-31G**.........                                                              
 
                  Type         
                   s
           No.      Exponent    Contraction Coefficients
           91  0.548467166D+04   0.001831   0.000000   0.000000
           92  0.825234946D+03   0.013950   0.000000   0.000000
           93  0.188046958D+03   0.068445   0.000000   0.000000
           94  0.529645000D+02   0.232714   0.000000   0.000000
           95  0.168975704D+02   0.470193   0.000000   0.000000
           96  0.155396162D+02   0.000000  -0.110778   0.000000
           97  0.579963534D+01   0.358521   0.000000   0.000000
           98  0.359993359D+01   0.000000  -0.148026   0.000000
           99  0.101376175D+01   0.000000   1.130767   0.000000
          100  0.270005823D+00   0.000000   0.000000   1.000000
 
                  Type         
                   p
           No.      Exponent    Contraction Coefficients
          101  0.155396162D+02   0.070874   0.000000
          102  0.359993359D+01   0.339753   0.000000
          103  0.101376175D+01   0.727159   0.000000
          104  0.270005823D+00   0.000000   1.000000
 
                  Type         
                   d
           No.      Exponent    Contraction Coefficients
          105  0.800000000D+00   1.000000
 
 
 Basis set:H.6-31G**.........                                                              
 
                  Type         
                   s
           No.      Exponent    Contraction Coefficients
          121  0.187311370D+02   0.033495   0.000000
          122  0.282539437D+01   0.234727   0.000000
          123  0.640121692D+00   0.813757   0.000000
          124  0.161277759D+00   0.000000   1.000000
 
                  Type         
                   p
           No.      Exponent    Contraction Coefficients
          125  0.110000000D+01   1.000000
 
 
 Basis set:C.6-31G**.........                                                              
 
                  Type         
                   s
           No.      Exponent    Contraction Coefficients
          136  0.304752488D+04   0.001835   0.000000   0.000000
          137  0.457369518D+03   0.014037   0.000000   0.000000
          138  0.103948685D+03   0.068843   0.000000   0.000000
          139  0.292101553D+02   0.232184   0.000000   0.000000
          140  0.928666296D+01   0.467941   0.000000   0.000000
          141  0.786827235D+01   0.000000  -0.119332   0.000000
          142  0.316392696D+01   0.362312   0.000000   0.000000
          143  0.188128854D+01   0.000000  -0.160854   0.000000
          144  0.544249258D+00   0.000000   1.143456   0.000000
          145  0.168714478D+00   0.000000   0.000000   1.000000
 
                  Type         
                   p
           No.      Exponent    Contraction Coefficients
          146  0.786827235D+01   0.068999   0.000000
          147  0.188128854D+01   0.316424   0.000000
          148  0.544249258D+00   0.744308   0.000000
          149  0.168714478D+00   0.000000   1.000000
 
                  Type         
                   d
           No.      Exponent    Contraction Coefficients
          150  0.800000000D+00   1.000000
 
 
 Basis set:H.6-31G**.........                                                              
 
                  Type         
                   s
           No.      Exponent    Contraction Coefficients
          151  0.187311370D+02   0.033495   0.000000
          152  0.282539437D+01   0.234727   0.000000
          153  0.640121692D+00   0.813757   0.000000
          154  0.161277759D+00   0.000000   1.000000
 
                  Type         
                   p
           No.      Exponent    Contraction Coefficients
          155  0.110000000D+01   1.000000
 
  Number of primitives                                   294
  Number of basis functions                              165
 
--
 
 
++    SO/AO info:
      -----------
 
                    **************************************************
                    ********** Petite list Basis Functions ***********
                    **************************************************
 
 
           Basis functions generated by E  
 
 Basis Label        Type   Center
    1  N1            1s       1
    2  N1            2s       1
    3  N1            *s       1
    4  N1            2px      1
    5  N1            *px      1
    6  N1            2py      1
    7  N1            *py      1
    8  N1            2pz      1
    9  N1            *pz      1
   10  N1            *200     1
   11  N1            *110     1
   12  N1            *101     1
   13  N1            *020     1
   14  N1            *011     1
   15  N1            *002     1
   16  C2            1s       2
   17  C2            2s       2
   18  C2            *s       2
   19  C2            2px      2
   20  C2            *px      2
   21  C2            2py      2
   22  C2            *py      2
   23  C2            2pz      2
   24  C2            *pz      2
   25  C2            *200     2
   26  C2            *110     2
   27  C2            *101     2
   28  C2            *020     2
   29  C2            *011     2
   30  C2            *002     2
   31  N3            1s       3
   32  N3            2s       3
   33  N3            *s       3
   34  N3            2px      3
   35  N3            *px      3
   36  N3            2py      3
   37  N3            *py      3
   38  N3            2pz      3
   39  N3            *pz      3
   40  N3            *200     3
   41  N3            *110     3
   42  N3            *101     3
   43  N3            *020     3
   44  N3            *011     3
   45  N3            *002     3
   46  C4            1s       4
   47  C4            2s       4
   48  C4            *s       4
   49  C4            2px      4
   50  C4            *px      4
   51  C4            2py      4
   52  C4            *py      4
   53  C4            2pz      4
   54  C4            *pz      4
   55  C4            *200     4
   56  C4            *110     4
   57  C4            *101     4
   58  C4            *020     4
   59  C4            *011     4
   60  C4            *002     4
   61  C5            1s       5
   62  C5            2s       5
   63  C5            *s       5
   64  C5            2px      5
   65  C5            *px      5
   66  C5            2py      5
   67  C5            *py      5
   68  C5            2pz      5
   69  C5            *pz      5
   70  C5            *200     5
   71  C5            *110     5
   72  C5            *101     5
   73  C5            *020     5
   74  C5            *011     5
   75  C5            *002     5
   76  C6            1s       6
   77  C6            2s       6
   78  C6            *s       6
   79  C6            2px      6
   80  C6            *px      6
   81  C6            2py      6
   82  C6            *py      6
   83  C6            2pz      6
   84  C6            *pz      6
   85  C6            *200     6
   86  C6            *110     6
   87  C6            *101     6
   88  C6            *020     6
   89  C6            *011     6
   90  C6            *002     6
   91  O7            1s       7
   92  O7            2s       7
   93  O7            *s       7
   94  O7            2px      7
   95  O7            *px      7
   96  O7            2py      7
   97  O7            *py      7
   98  O7            2pz      7
   99  O7            *pz      7
  100  O7            *200     7
  101  O7            *110     7
  102  O7            *101     7
  103  O7            *020     7
  104  O7            *011     7
  105  O7            *002     7
  106  O8            1s       8
  107  O8            2s       8
  108  O8            *s       8
  109  O8            2px      8
  110  O8            *px      8
  111  O8            2py      8
  112  O8            *py      8
  113  O8            2pz      8
  114  O8            *pz      8
  115  O8            *200     8
  116  O8            *110     8
  117  O8            *101     8
  118  O8            *020     8
  119  O8            *011     8
  120  O8            *002     8
  121  H9            1s       9
  122  H9            *s       9
  123  H9            *px      9
  124  H9            *py      9
  125  H9            *pz      9
  126  H10           1s      10
  127  H10           *s      10
  128  H10           *px     10
  129  H10           *py     10
  130  H10           *pz     10
  131  H11           1s      11
  132  H11           *s      11
  133  H11           *px     11
  134  H11           *py     11
  135  H11           *pz     11
  136  C12           1s      12
  137  C12           2s      12
  138  C12           *s      12
  139  C12           2px     12
  140  C12           *px     12
  141  C12           2py     12
  142  C12           *py     12
  143  C12           2pz     12
  144  C12           *pz     12
  145  C12           *200    12
  146  C12           *110    12
  147  C12           *101    12
  148  C12           *020    12
  149  C12           *011    12
  150  C12           *002    12
  151  H13           1s      13
  152  H13           *s      13
  153  H13           *px     13
  154  H13           *py     13
  155  H13           *pz     13
  156  H14           1s      14
  157  H14           *s      14
  158  H14           *px     14
  159  H14           *py     14
  160  H14           *pz     14
  161  H15           1s      15
  162  H15           *s      15
  163  H15           *px     15
  164  H15           *py     15
  165  H15           *pz     15
 
      Basis set specifications :
      Symmetry species        a  
      Basis functions         165
--
 
 
            Nuclear Potential Energy            438.46157139 au
 
--- Stop Module: gateway at Fri May  5 16:44:51 2023 /rc=_RC_ALL_IS_WELL_ ---
*** files: cas2.RICDLib xmldump
    saved to directory /home/marlenne/thymine/Thymine/MOLCAS/3.Ground_State/1.GS_non-planar/try2/orbs

--- Start Module: seward at Fri May  5 16:44:51 2023 ---
 
()()()()()()()()()()()()()()()()()()()()()()()()()()()()()()()()()()()()()()()()()()()()()()()()()()

                                              &SEWARD

                                   only a single process is used
                       available to each process: 4.0 GB of memory, 1 thread?
                                             pid: 14903
()()()()()()()()()()()()()()()()()()()()()()()()()()()()()()()()()()()()()()()()()()()()()()()()()()
 
 
  Weights used for alignment and distance                     
  mat. size =    15x    1
       14.0030740044299993
       12.0000000000000000
       14.0030740044299993
       12.0000000000000000
       12.0000000000000000
       12.0000000000000000
       15.9949146195700003
       15.9949146195700003
        1.0078250322300000
        1.0078250322300000
        1.0078250322300000
       12.0000000000000000
        1.0078250322300000
        1.0078250322300000
        1.0078250322300000
 
               SEWARD will generate:
                  Multipole Moment integrals up to order  2
                  Kinetic Energy integrals
                  Nuclear Attraction integrals (point charge)
                  One-Electron Hamiltonian integrals
                  Velocity integrals
                  Orbital angular momentum around ( 0.5137 -0.3215 -0.1426 )
                  Velocity quadrupole around ( 0.5137 -0.3215 -0.1426 )
                  RI decomposed two-electron repulsion integrals stored Cholesky style
                   - acCD auxiliary basis
                   - CD Threshold:   0.10E-03
 
                   Integrals are discarded if absolute value <: 0.10E-13
                   Integral cutoff threshold is set to       <: 0.10E-15
 
++    SO/AO info:
      -----------
 
                    **************************************************
                    ********** Petite list Basis Functions ***********
                    **************************************************
 
 
           Basis functions generated by E  
 
 Basis Label        Type   Center
    1  N1            1s       1
    2  N1            2s       1
    3  N1            *s       1
    4  N1            2px      1
    5  N1            *px      1
    6  N1            2py      1
    7  N1            *py      1
    8  N1            2pz      1
    9  N1            *pz      1
   10  N1            *200     1
   11  N1            *110     1
   12  N1            *101     1
   13  N1            *020     1
   14  N1            *011     1
   15  N1            *002     1
   16  C2            1s       2
   17  C2            2s       2
   18  C2            *s       2
   19  C2            2px      2
   20  C2            *px      2
   21  C2            2py      2
   22  C2            *py      2
   23  C2            2pz      2
   24  C2            *pz      2
   25  C2            *200     2
   26  C2            *110     2
   27  C2            *101     2
   28  C2            *020     2
   29  C2            *011     2
   30  C2            *002     2
   31  N3            1s       3
   32  N3            2s       3
   33  N3            *s       3
   34  N3            2px      3
   35  N3            *px      3
   36  N3            2py      3
   37  N3            *py      3
   38  N3            2pz      3
   39  N3            *pz      3
   40  N3            *200     3
   41  N3            *110     3
   42  N3            *101     3
   43  N3            *020     3
   44  N3            *011     3
   45  N3            *002     3
   46  C4            1s       4
   47  C4            2s       4
   48  C4            *s       4
   49  C4            2px      4
   50  C4            *px      4
   51  C4            2py      4
   52  C4            *py      4
   53  C4            2pz      4
   54  C4            *pz      4
   55  C4            *200     4
   56  C4            *110     4
   57  C4            *101     4
   58  C4            *020     4
   59  C4            *011     4
   60  C4            *002     4
   61  C5            1s       5
   62  C5            2s       5
   63  C5            *s       5
   64  C5            2px      5
   65  C5            *px      5
   66  C5            2py      5
   67  C5            *py      5
   68  C5            2pz      5
   69  C5            *pz      5
   70  C5            *200     5
   71  C5            *110     5
   72  C5            *101     5
   73  C5            *020     5
   74  C5            *011     5
   75  C5            *002     5
   76  C6            1s       6
   77  C6            2s       6
   78  C6            *s       6
   79  C6            2px      6
   80  C6            *px      6
   81  C6            2py      6
   82  C6            *py      6
   83  C6            2pz      6
   84  C6            *pz      6
   85  C6            *200     6
   86  C6            *110     6
   87  C6            *101     6
   88  C6            *020     6
   89  C6            *011     6
   90  C6            *002     6
   91  O7            1s       7
   92  O7            2s       7
   93  O7            *s       7
   94  O7            2px      7
   95  O7            *px      7
   96  O7            2py      7
   97  O7            *py      7
   98  O7            2pz      7
   99  O7            *pz      7
  100  O7            *200     7
  101  O7            *110     7
  102  O7            *101     7
  103  O7            *020     7
  104  O7            *011     7
  105  O7            *002     7
  106  O8            1s       8
  107  O8            2s       8
  108  O8            *s       8
  109  O8            2px      8
  110  O8            *px      8
  111  O8            2py      8
  112  O8            *py      8
  113  O8            2pz      8
  114  O8            *pz      8
  115  O8            *200     8
  116  O8            *110     8
  117  O8            *101     8
  118  O8            *020     8
  119  O8            *011     8
  120  O8            *002     8
  121  H9            1s       9
  122  H9            *s       9
  123  H9            *px      9
  124  H9            *py      9
  125  H9            *pz      9
  126  H10           1s      10
  127  H10           *s      10
  128  H10           *px     10
  129  H10           *py     10
  130  H10           *pz     10
  131  H11           1s      11
  132  H11           *s      11
  133  H11           *px     11
  134  H11           *py     11
  135  H11           *pz     11
  136  C12           1s      12
  137  C12           2s      12
  138  C12           *s      12
  139  C12           2px     12
  140  C12           *px     12
  141  C12           2py     12
  142  C12           *py     12
  143  C12           2pz     12
  144  C12           *pz     12
  145  C12           *200    12
  146  C12           *110    12
  147  C12           *101    12
  148  C12           *020    12
  149  C12           *011    12
  150  C12           *002    12
  151  H13           1s      13
  152  H13           *s      13
  153  H13           *px     13
  154  H13           *py     13
  155  H13           *pz     13
  156  H14           1s      14
  157  H14           *s      14
  158  H14           *px     14
  159  H14           *py     14
  160  H14           *pz     14
  161  H15           1s      15
  162  H15           *s      15
  163  H15           *px     15
  164  H15           *py     15
  165  H15           *pz     15
 
      Basis set specifications :
      Symmetry species        a  
      Basis functions         165
--
 
 
            Nuclear Potential Energy            438.46157139 au
 
 
      Basis set specifications :
      Symmetry species         a  
      Basis functions          165
 
 
Seward processing 2-center and 3-center ERIs
 
 2-center integrals:
      CPU time :    0.11 sec.
      Wall time:    0.15 sec.
 3-center integrals:
      CPU time :    1.16 sec.
      Wall time:    1.17 sec.
 Block-transpose:
      CPU time :    0.04 sec.
      Wall time:    0.08 sec.
 Diagonal vector:
      CPU time :    0.04 sec.
      Wall time:    0.03 sec.
      RI vectors               720
 
 
 
  Input file to MOLDEN was generated!
 
++ I/O STATISTICS
 
  I. General I/O information
  - - - - - - - - - - - - - - - - - - - - - - - - - - - - - - - - - - - - - - - - - - -
  Unit  Name          Flsize      Write/Read            MBytes           Write/Read
                      (MBytes)       Calls              In/Out           Time, sec.
  - - - - - - - - - - - - - - - - - - - - - - - - - - - - - - - - - - - - - - - - - - -
   1  RUNFILE           0.70 .    1386/    8312 .     10.2/     60.8 .       0/       0
   2  NQGRID            0.00 .       2/       0 .      0.0/      0.0 .       0/       0
   3  ONEINT            4.40 .      62/     142 .     47.6/     22.6 .       0/       0
   4  AVEC00            0.00 .     721/    1441 .      5.9/     11.9 .       0/       0
   5  ZMAT00            0.00 .       1/       0 .      4.0/      0.0 .       0/       0
   6  AMAT00            1.98 .       2/       1 .      4.0/      2.0 .       0/       0
   7  QMAT00            0.00 .       1/       1 .      2.0/      2.0 .       0/       0
   8  QVEC00            3.96 .     720/       1 .      4.0/      4.0 .       0/       0
   9  RVEC00           74.59 .     770/     770 .     74.6/     74.6 .       0/       0
  10  CHRED             0.22 .       4/       0 .      0.2/      0.0 .       0/       0
  11  CHVEC1           74.59 .       1/       0 .     74.6/      0.0 .       0/       0
  12  CHORST            0.03 .      12/       0 .      0.0/      0.0 .       0/       0
  13  CHOMAP            0.01 .       1/       0 .      0.0/      0.0 .       0/       0
  14  CHODIAG           0.10 .       1/       0 .      0.1/      0.0 .       0/       0
  - - - - - - - - - - - - - - - - - - - - - - - - - - - - - - - - - - - - - - - - - - -
   *  TOTAL           160.56 .    3684/   10668 .    227.1/    177.8 .       0/       0
  - - - - - - - - - - - - - - - - - - - - - - - - - - - - - - - - - - - - - - - - - - -
 
  II. I/O Access Patterns
  - - - - - - - - - - - - - - - - - - - -
  Unit  Name               % of random
                         Write/Read calls
  - - - - - - - - - - - - - - - - - - - -
   1  RUNFILE             28.6/  10.1
   2  NQGRID              50.0/   0.0
   3  ONEINT              95.2/  10.6
   4  AVEC00              99.9/  99.7
   5  ZMAT00               0.0/   0.0
   6  AMAT00              50.0/ 100.0
   7  QMAT00               0.0/ 100.0
   8  QVEC00               0.0/ 100.0
   9  RVEC00               0.0/   0.1
  10  CHRED                0.0/   0.0
  11  CHVEC1               0.0/   0.0
  12  CHORST               0.0/   0.0
  13  CHOMAP               0.0/   0.0
  14  CHODIAG              0.0/   0.0
  - - - - - - - - - - - - - - - - - - - -
--
--- Stop Module: seward at Fri May  5 16:44:53 2023 /rc=_RC_ALL_IS_WELL_ ---
*** files: cas2.GssOrb cas2.guessorb.h5 cas2.guessorb.molden xmldump
    saved to directory /home/marlenne/thymine/Thymine/MOLCAS/3.Ground_State/1.GS_non-planar/try2/orbs
--- Module seward spent 2 seconds ---

>>> COPY /home/marlenne/thymine/Thymine/MOLCAS/3.Ground_State/1.GS_non-planar/try2/orbs/cas.RasOrb INPORB

--- Start Module: rasscf at Fri May  5 16:44:53 2023 ---
 
()()()()()()()()()()()()()()()()()()()()()()()()()()()()()()()()()()()()()()()()()()()()()()()()()()

                                              &RASSCF

                                   only a single process is used
                       available to each process: 4.0 GB of memory, 1 thread?
                                             pid: 14906
()()()()()()()()()()()()()()()()()()()()()()()()()()()()()()()()()()()()()()()()()()()()()()()()()()
 
  Orbital specification was read from input.
 
      Header of the ONEINT file:
      --------------------------
      
      Integrals generated by Gateway/Seward, Fri May  5 16:44:51 2023
 
 
      OrdInt status: non-squared
 
 
      Cartesian coordinates in Angstrom:
      -----------------------------------------------------
      No.  Label        X            Y            Z        
      -----------------------------------------------------
       1   N1        -1.19785239  -0.95476966  -0.10201976
       2   C2        -1.23910279   0.41758392   0.08270217
       3   N3         0.02637587   0.98303711   0.09107635
       4   C4         1.26895846   0.35021984  -0.05901097
       5   C5         1.18804469  -1.09786196  -0.24736035
       6   C6        -0.03456241  -1.67950700  -0.25978335
       7   O7        -2.27754267   1.05106861   0.22165909
       8   O8         2.31319816   0.99895495  -0.02818040
       9   H9        -0.16862003  -2.74443151  -0.39435117
      10   H10        0.05153683   1.98604444   0.22283222
      11   H11       -2.09755889  -1.40848668  -0.11460824
      12   C12        2.47068479  -1.84846356  -0.41508457
      13   H13        3.01881668  -1.47781396  -1.28022088
      14   H14        3.11130548  -1.70742922   0.45439107
      15   H15        2.28475330  -2.91313134  -0.54612822
      -----------------------------------------------------
      Nuclear repulsion energy =  438.46157139
 
++    Wave function specifications:
      -----------------------------
 
      Number of closed shell electrons          52
      Number of electrons in active shells      14
      Max number of holes in RAS1 space          0
      Max nr of electrons in RAS3 space          0
      Number of inactive orbitals               26
      Number of active orbitals                 10
      Number of secondary orbitals             129
      Spin quantum number                      0.0
      State symmetry                             1
--
 
++    Orbital specifications:
      -----------------------
 
      Symmetry species                           1
                                                 a
      Frozen orbitals                            0
      Inactive orbitals                         26
      Active orbitals                           10
      RAS1 orbitals                              0
      RAS2 orbitals                             10
      RAS3 orbitals                              0
      Secondary orbitals                       129
      Deleted orbitals                           0
      Number of basis functions                165
--
 
++    CI expansion specifications:
      ----------------------------
 
      Number of CSFs                          4950
      Number of determinants                  7260
      Number of root(s) required                 5
      Root chosen for geometry opt.              5
      CI roots used                              1     2     3     4     5
      weights                                0.200 0.200 0.200 0.200 0.200
      highest root included in the CI            5
      max. size of the explicit Hamiltonian    200
--
 
++    Optimization specifications:
      ----------------------------
 
      RASSCF algorithm: LK RI/DF
      Maximum number of macro iterations       200
      Maximum number of SX iterations          100
      Threshold for RASSCF energy            0.100E-05
      Threshold for max MO rotation          0.100E-01
      Threshold for max BLB element          0.100E-01
      Level shift parameter                  0.800E+00
      Make Quasi-Newton update
--
 
      The MO-coefficients are taken from the file:
      INPORB                                                                                                                                                                                                                                                          
      Title: RASSCF average (pseudo-natural) orbitals                                      
 
      Total molecular charge    0.00
 
      Molecular orbitals exchanged:
        In symmetry  1 :  25  28
        In symmetry  1 :  36  40
 
 
      ************************************************************************************************************************
      *                                                                                                                      *
      *                                            Wave function control section                                             *
      *                                                                                                                      *
      ************************************************************************************************************************
 
 
                                         RASSCF iterations: Energy and convergence statistics
                                         ----------------------------------------------------
 
      Iter CI   SX   CI       RASSCF       Energy    max ROT     max BLB   max BLB  Level Ln srch  Step   QN   Walltime
          iter iter root      energy       change     param      element    value   shift minimum  type update hh:mm:ss
 Nr of preliminary CI iterations:   6
        1   1   32    0  -451.36574971    0.00E+00  -0.38E+00*  30  40 1  0.32E-01*  0.59   0.00    SX    NO    0:00:03
        2   6   29    0  -451.38185304   -0.16E-01* -0.19E+00*  30  40 1  0.20E-01*  0.59   0.00    SX    NO    0:00:01
        3   4   13    0  -451.38881534   -0.70E-02*  0.10E+00*  31  40 1  0.12E-01*  0.59   0.00    SX    NO    0:00:01
        4   6   11    0  -451.39183314   -0.30E-02*  0.58E-01*  36  43 1  0.77E-02   0.59   0.00    SX    NO    0:00:01
        5   4   11    0  -451.39301246   -0.12E-02*  0.59E-01*  36  43 1  0.49E-02   0.59   2.21    LS   YES    0:00:01
        6   6   10    0  -451.39366891   -0.66E-03*  0.28E-01*  34  43 1  0.20E-02   0.59   1.51    LS   YES    0:00:01
        7   4   10    0  -451.39377451   -0.11E-03* -0.11E-01*  34  43 1  0.25E-02   0.59   1.23    QN   YES    0:00:01
        8   6    9    0  -451.39386976   -0.95E-04* -0.87E-02   34  43 1  0.18E-02   0.59   1.79    LS   YES    0:00:01
        9   4    9    0  -451.39390331   -0.34E-04* -0.58E-02   34  43 1  0.12E-02   0.59   1.38    QN   YES    0:00:01
       10   5    8    0  -451.39392321   -0.20E-04*  0.26E-02   31  40 1 -0.36E-03   0.59   1.32    QN   YES    0:00:01
       11   4    8    0  -451.39392712   -0.39E-05* -0.12E-02   23  35 1  0.22E-03   0.59   1.36    QN   YES    0:00:01
       12   6    7    0  -451.39392855   -0.14E-05* -0.84E-03   34  43 1 -0.10E-03   0.59   1.42    QN   YES    0:00:01
       13   4    7    0  -451.39392903   -0.48E-06   0.37E-03   34  43 1 -0.80E-04   0.59   1.30    QN   YES    0:00:01
      Convergence after 13 iterations
       14   3    7    0  -451.39392916   -0.13E-06   0.37E-03   31  40 1  0.41E-04   0.59   1.30    QN   YES    0:00:01
 
      ************************************************************************************************************************
                                                      Wave function printout:
                       occupation of active orbitals, and spin coupling of open shells (u,d: Spin up or down)
      ************************************************************************************************************************
 
      Note: transformation to natural orbitals
      has been made, which may change the order of the CSFs.
 
      printout of CI-coefficients larger than  0.05 for root  1
      energy=    -451.581919
      conf/sym  1111111111     Coeff  Weight
             1  2222222000   0.92122 0.84864
             2  222222ud00   0.18594 0.03457
             4  2222220200  -0.09797 0.00960
             7  222222u0d0  -0.10724 0.01150
             8  22222u20d0   0.05616 0.00315
            10  22222udud0   0.07149 0.00511
            17  2222202020  -0.06740 0.00454
            22  22222u200d   0.05061 0.00256
            24  22222udu0d  -0.07450 0.00555
           201  22u2222d00  -0.07067 0.00499
           214  22u22d2020   0.05364 0.00288
           222  22u222du0d  -0.08280 0.00686
           231  22u22d20ud   0.05192 0.00270
           351  u222222d00  -0.05456 0.00298
           880  2202222020  -0.05801 0.00337
 
      printout of CI-coefficients larger than  0.05 for root  2
      energy=    -451.396484
      conf/sym  1111111111     Coeff  Weight
            51  2222u22d00  -0.67286 0.45274
            52  2222u2d200   0.12545 0.01574
            54  2222u220d0   0.23106 0.05339
            56  2222ud2ud0  -0.05758 0.00331
            57  2222u2udd0   0.05595 0.00313
            71  2222u2200d  -0.11799 0.01392
            73  2222ud2u0d   0.05641 0.00318
            74  2222u2ud0d  -0.09209 0.00848
           126  222u222d00   0.52447 0.27507
           127  222u22d200  -0.12731 0.01621
           129  222u2220d0  -0.19565 0.03828
           131  222u2d2ud0   0.07287 0.00531
           133  222u2u2dd0  -0.06583 0.00433
           146  222u22200d   0.11321 0.01282
           149  222u22ud0d   0.08711 0.00759
           536  22u2d22u0d   0.06361 0.00405
           736  22ud222u0d  -0.05537 0.00307
 
      printout of CI-coefficients larger than  0.05 for root  3
      energy=    -451.338122
      conf/sym  1111111111     Coeff  Weight
            51  2222u22d00  -0.25862 0.06689
            54  2222u220d0  -0.64531 0.41642
            55  2222u2dud0  -0.10149 0.01030
            56  2222ud2ud0   0.06174 0.00381
            57  2222u2udd0  -0.06955 0.00484
            59  2222u202d0   0.06729 0.00453
            64  2222ud2020   0.06634 0.00440
            71  2222u2200d  -0.07602 0.00578
           126  222u222d00  -0.23683 0.05609
           127  222u22d200  -0.05635 0.00318
           129  222u2220d0  -0.51575 0.26600
           130  222u22dud0  -0.10189 0.01038
           131  222u2d2ud0   0.05074 0.00257
           132  222u22udd0  -0.10064 0.01013
           134  222u2202d0   0.06026 0.00363
           139  222u2d2020   0.09490 0.00901
           146  222u22200d  -0.12925 0.01671
           163  222u22u0dd   0.05303 0.00281
           530  22u2d22020  -0.09548 0.00912
           539  22u2d220ud  -0.05432 0.00295
           730  22ud222020  -0.09402 0.00884
           739  22ud2220ud  -0.05269 0.00278
 
      printout of CI-coefficients larger than  0.05 for root  4
      energy=    -451.336612
      conf/sym  1111111111     Coeff  Weight
             1  2222222000   0.15033 0.02260
             2  222222ud00  -0.76380 0.58339
             3  22222u2d00   0.40475 0.16382
             4  2222220200  -0.06270 0.00393
             5  22222ud200   0.10742 0.01154
             7  222222u0d0  -0.05639 0.00318
             8  22222u20d0  -0.13384 0.01791
             9  2222220ud0   0.10427 0.01087
            11  2222202ud0  -0.15144 0.02293
            19  222220ud20   0.06128 0.00376
            21  222222u00d   0.07283 0.00530
            23  2222220u0d  -0.07304 0.00533
            24  22222udu0d   0.06902 0.00476
            29  22222200ud   0.05796 0.00336
           201  22u2222d00  -0.06513 0.00424
           203  22u22d2200   0.05283 0.00279
           204  22u22220d0  -0.08437 0.00712
           206  22u22d2ud0   0.06948 0.00483
           207  22u222udd0   0.05547 0.00308
           208  22u22u2dd0  -0.06990 0.00489
           222  22u222du0d   0.07096 0.00504
           276  2u22222d00   0.05485 0.00301
           351  u222222d00  -0.10171 0.01034
           354  u2222220d0  -0.12040 0.01450
           372  u22222du0d   0.05968 0.00356
           881  220222ud20   0.05046 0.00255
 
      printout of CI-coefficients larger than  0.05 for root  5
      energy=    -451.316508
      conf/sym  1111111111     Coeff  Weight
             1  2222222000   0.07993 0.00639
             2  222222ud00  -0.37939 0.14394
             3  22222u2d00  -0.71270 0.50795
             4  2222220200   0.28383 0.08056
             5  22222ud200   0.08827 0.00779
             6  2222202200  -0.06629 0.00439
             7  222222u0d0  -0.15212 0.02314
             9  2222220ud0  -0.05563 0.00309
            10  22222udud0  -0.12896 0.01663
            11  2222202ud0   0.05662 0.00321
            12  22222uudd0   0.05101 0.00260
            18  22222u0d20  -0.05294 0.00280
            21  222222u00d   0.13354 0.01783
            22  22222u200d   0.13468 0.01814
            26  22222uud0d  -0.08408 0.00707
            29  22222200ud   0.05968 0.00356
            30  22222ud0ud   0.09563 0.00915
            41  2222220002  -0.08245 0.00680
           203  22u22d2200  -0.13537 0.01833
           208  22u22u2dd0   0.08423 0.00709
           224  22u222ud0d  -0.06530 0.00426
           233  22u22dudud  -0.05281 0.00279
           351  u222222d00  -0.06496 0.00422
           352  u22222d200  -0.12008 0.01442
           353  u2222d2200  -0.06384 0.00408
           358  u2222u2dd0  -0.05082 0.00258
           882  22022u2d20   0.05407 0.00292
 
      Natural orbitals and occupation numbers for root  1
      sym 1:   1.992006   1.994970   1.955247   1.999858   1.999747   1.943291   1.917530   0.090855   0.063541   0.042955

 
      Natural orbitals and occupation numbers for root  2
      sym 1:   1.995182   1.992688   1.998232   1.997196   1.002675   1.956735   1.924717   1.001917   0.083180   0.047477

 
      Natural orbitals and occupation numbers for root  3
      sym 1:   1.994593   1.991063   1.948834   1.991972   1.007810   1.997868   1.919616   0.094696   1.000805   0.052745

 
      Natural orbitals and occupation numbers for root  4
      sym 1:   1.937813   1.986980   1.963482   1.999821   1.999773   1.881015   1.105367   0.918858   0.152144   0.054748

 
      Natural orbitals and occupation numbers for root  5
      sym 1:   1.962271   1.989159   1.941623   1.999836   1.999676   1.174077   1.816245   0.902692   0.144797   0.069623

 
      ************************************************************************************************************************
      *                                                                                                                      *
      *                                                    Final results                                                     *
      *                                                                                                                      *
      ************************************************************************************************************************
 
 
++    Wave function specifications:
      -----------------------------
 
      Number of closed shell electrons          52
      Number of electrons in active shells      14
      Max number of holes in RAS1 space          0
      Max nr of electrons in RAS3 space          0
      Number of inactive orbitals               26
      Number of active orbitals                 10
      Number of secondary orbitals             129
      Spin quantum number                      0.0
      State symmetry                             1
--
 
++    Orbital specifications:
      -----------------------
 
      Symmetry species                           1
                                                 a
      Frozen orbitals                            0
      Inactive orbitals                         26
      Active orbitals                           10
      RAS1 orbitals                              0
      RAS2 orbitals                             10
      RAS3 orbitals                              0
      Secondary orbitals                       129
      Deleted orbitals                           0
      Number of basis functions                165
--
 
++    CI expansion specifications:
      ----------------------------
 
      Number of CSFs                          4950
      Number of determinants                  7260
      Number of root(s) required                 5
      CI roots used                              1     2     3     4     5
      weights                                0.200 0.200 0.200 0.200 0.200
      highest root included in the CI            5
      Root passed to geometry opt.               5
--
 
++    Final optimization conditions:
      ------------------------------
 
      Average CI energy                            -451.39392916
      RASSCF energy for state  5                   -451.31650831
      Super-CI energy                                -0.00000006
      RASSCF energy change                            0.00000000
      Max change in MO coefficients               0.344E-03
      Max non-diagonal density matrix element     0.375E-03
      Maximum BLB matrix element                  0.414E-04
      (orbital pair  31,  40 in symmetry   1)
      Norm of electronic gradient            0.150E+00
--
 
 
      Final state energy(ies):
      ------------------------
 
::    RASSCF root number  1 Total energy:   -451.58191894
::    RASSCF root number  2 Total energy:   -451.39648414
::    RASSCF root number  3 Total energy:   -451.33812230
::    RASSCF root number  4 Total energy:   -451.33661211
::    RASSCF root number  5 Total energy:   -451.31650831
 
++    Molecular orbitals:
      -------------------
 
      Pseudonatural active orbitals and approximate occupation numbers
 
 
 
 
      Molecular orbitals for symmetry species 1: a  
 
 
      Orbital                 1         2         3         4         5         6         7         8         9        10
      Energy           -20.6032  -20.5828  -15.6387  -15.6259  -11.3806  -11.3288  -11.2738  -11.2283  -11.2224   -1.4410
      Occ. No.           2.0000    2.0000    2.0000    2.0000    2.0000    2.0000    2.0000    2.0000    2.0000    2.0000
 
     1 N1     1s        -0.0000   -0.0000    0.9950    0.0008   -0.0002    0.0000   -0.0002    0.0001   -0.0000   -0.0525
     2 N1     2s        -0.0000   -0.0000    0.0254    0.0000    0.0003    0.0001    0.0004    0.0001   -0.0002    0.1071
     3 N1     *s         0.0003    0.0002   -0.0048   -0.0008   -0.0001   -0.0019   -0.0010   -0.0021    0.0014    0.1113
     4 N1     2px        0.0000    0.0000    0.0000    0.0000    0.0000   -0.0000    0.0002    0.0000   -0.0000   -0.0019
     5 N1     *px        0.0001   -0.0000   -0.0012   -0.0008   -0.0001    0.0001   -0.0029   -0.0009    0.0007    0.0067
     6 N1     2py       -0.0000    0.0000    0.0001   -0.0001    0.0001    0.0000   -0.0001   -0.0000   -0.0000    0.0366
     7 N1     *py        0.0001    0.0001   -0.0010    0.0000   -0.0011   -0.0016    0.0015   -0.0003    0.0000    0.0241
     8 N1     2pz       -0.0000    0.0000    0.0000   -0.0000    0.0000    0.0000   -0.0000   -0.0000    0.0000    0.0050
     9 N1     *pz        0.0000    0.0000   -0.0001    0.0000   -0.0001   -0.0002    0.0003    0.0000   -0.0000    0.0028
    10 N1     *200      -0.0000   -0.0000   -0.0019    0.0000   -0.0002    0.0000   -0.0004    0.0002   -0.0000    0.0000
    11 N1     *110       0.0001    0.0000    0.0001   -0.0000    0.0000   -0.0001    0.0004    0.0000   -0.0000   -0.0031
    12 N1     *101       0.0000    0.0000    0.0000   -0.0000    0.0000   -0.0000    0.0001   -0.0000   -0.0000   -0.0006
    13 N1     *020      -0.0000   -0.0000   -0.0019    0.0000   -0.0004    0.0000   -0.0002    0.0001   -0.0000    0.0051
    14 N1     *011       0.0000   -0.0000   -0.0000    0.0000   -0.0001   -0.0000   -0.0001    0.0000    0.0000    0.0021
    15 N1     *002      -0.0000    0.0000   -0.0019   -0.0000    0.0001    0.0000    0.0001    0.0000   -0.0001   -0.0020
    16 C2     1s        -0.0000    0.0000    0.0000    0.0000    0.9957    0.0002    0.0001    0.0000   -0.0000   -0.1236
    17 C2     2s         0.0005    0.0000    0.0002    0.0002    0.0269   -0.0005   -0.0004   -0.0000   -0.0000    0.2397
    18 C2     *s        -0.0008    0.0000    0.0017    0.0017   -0.0022   -0.0009    0.0006    0.0007   -0.0001    0.0170
    19 C2     2px        0.0000    0.0000    0.0000    0.0002    0.0001   -0.0002    0.0000    0.0000   -0.0000   -0.0996
    20 C2     *px        0.0004   -0.0002    0.0007    0.0021   -0.0034    0.0012    0.0046    0.0011   -0.0002    0.0180
    21 C2     2py       -0.0000    0.0000   -0.0003    0.0001    0.0000   -0.0001    0.0000   -0.0000    0.0000    0.0608
    22 C2     *py       -0.0003    0.0003   -0.0020    0.0002    0.0022   -0.0039   -0.0000   -0.0007    0.0005   -0.0096
    23 C2     2pz       -0.0000    0.0000   -0.0000   -0.0000   -0.0000   -0.0000    0.0000   -0.0000    0.0000    0.0133
    24 C2     *pz       -0.0001    0.0000   -0.0003   -0.0001    0.0005   -0.0006   -0.0002   -0.0001    0.0001   -0.0022
    25 C2     *200      -0.0004    0.0000   -0.0000   -0.0001   -0.0005   -0.0001    0.0000   -0.0000   -0.0000    0.0094
    26 C2     *110       0.0004    0.0000   -0.0000   -0.0001   -0.0004    0.0001   -0.0000   -0.0000    0.0000   -0.0180
    27 C2     *101       0.0001    0.0000   -0.0000   -0.0000   -0.0002    0.0000   -0.0000   -0.0000    0.0000   -0.0046
    28 C2     *020      -0.0001    0.0000   -0.0001   -0.0001   -0.0007   -0.0000    0.0001   -0.0000    0.0000   -0.0001
    29 C2     *011      -0.0001   -0.0000   -0.0000    0.0000    0.0002    0.0000    0.0000    0.0000    0.0000    0.0039
    30 C2     *002      -0.0000    0.0000   -0.0000   -0.0000   -0.0014   -0.0001   -0.0001   -0.0000   -0.0000   -0.0107
    31 N3     1s        -0.0000   -0.0000   -0.0008    0.9950   -0.0002   -0.0003    0.0001    0.0000   -0.0001   -0.0552
    32 N3     2s        -0.0000   -0.0000    0.0000    0.0255    0.0003    0.0003    0.0003    0.0001   -0.0002    0.1129
    33 N3     *s         0.0003    0.0002   -0.0008   -0.0053    0.0002    0.0013   -0.0035   -0.0017    0.0021    0.1144
    34 N3     2px        0.0000   -0.0000    0.0001   -0.0002   -0.0001    0.0002   -0.0000    0.0000   -0.0000   -0.0281
    35 N3     *px       -0.0001    0.0002   -0.0004    0.0001    0.0015   -0.0035    0.0014   -0.0000    0.0011   -0.0137
[...]
      *s       0.8672  0.1054  0.8897  0.2300  0.4946  0.3645  0.9849  0.9924  0.2879  0.1391  0.1343  0.6130
      *px      0.4703 -0.0505  0.4086 -0.0762  0.2410  0.1000  0.5422  0.5498  0.0012  0.0024  0.0148  0.2808
      *pz      0.6099  0.3192  0.7093  0.3871  0.4904  0.4422  0.5161  0.5798  0.0038  0.0072  0.0061  0.3770
      *py      0.4089  0.0012  0.4983  0.0932  0.2128  0.2459  0.6509  0.6577  0.0098  0.0175  0.0056  0.3224
      *200     0.0165  0.0483  0.0240  0.0408  0.0262  0.0245  0.0125  0.0127  0.0000  0.0000  0.0000  0.0065
      *110     0.0098  0.0363  0.0092  0.0360  0.0123  0.0201  0.0093  0.0090  0.0000  0.0000  0.0000  0.0078
      *101     0.0046  0.0223  0.0072  0.0206  0.0084  0.0109  0.0085  0.0085  0.0000  0.0000  0.0000  0.0137
      *020     0.0182  0.0369  0.0094  0.0296  0.0213  0.0177  0.0056  0.0051  0.0000  0.0000  0.0000  0.0076
      *011     0.0074  0.0161  0.0022  0.0141  0.0076  0.0044  0.0033  0.0033  0.0000  0.0000  0.0000  0.0034
      *002    -0.0165 -0.0247 -0.0168 -0.0220 -0.0165 -0.0188 -0.0001 -0.0006  0.0000  0.0000  0.0000  0.0036
      Total    7.5038  5.0999  7.7806  5.3958  6.1665  5.8918  8.4482  8.6285  0.8317  0.6615  0.6602  6.3196
 
      N-E     -0.5038  0.9001 -0.7806  0.6042 -0.1665  0.1082 -0.4482 -0.6285  0.1683  0.3385  0.3398 -0.3196
 
                H13     H14     H15   
      1s       0.5271  0.5271  0.5328
      2s       0.0000  0.0000  0.0000
      2px      0.0000  0.0000  0.0000
      2pz      0.0000  0.0000  0.0000
      2py      0.0000  0.0000  0.0000
      *s       0.3208  0.3208  0.3447
      *px      0.0037  0.0044  0.0019
      *pz      0.0065  0.0066  0.0021
      *py      0.0027  0.0020  0.0088
      *200     0.0000  0.0000  0.0000
      *110     0.0000  0.0000  0.0000
      *101     0.0000  0.0000  0.0000
      *020     0.0000  0.0000  0.0000
      *011     0.0000  0.0000  0.0000
      *002     0.0000  0.0000  0.0000
      Total    0.8608  0.8608  0.8903
 
      N-E      0.1392  0.1392  0.1097
 
      Total electronic charge=   66.000000
 
      Total            charge=   -0.000000
 
      Mulliken Bond Order analysis
      ----------------------------
      Only bonds with order larger than 0.500 are printed
 
        Atom A        Atom B        Bond Order
        N1            C2              0.975
        N1            C6              0.946
        N1            H11             0.872
        C2            N3              1.018
        C2            O7              1.545
        N3            C4              0.791
        N3            H10             0.868
        C4            C5              1.237
        C4            O8              1.467
        C5            C6              1.139
        C5            C12             0.983
        C6            H9              0.960
        C12           H13             0.963
        C12           H14             0.963
        C12           H15             0.978
 
--
 
 

      Expectation values of various properties for root number:  4
      -----------------------------------------------------------
 
 
++    Molecular properties:
      ---------------------
 


       0-th cartesian moments: origin at (  0.00000000,  0.00000000,  0.00000000)
      ----------------------------------------------------------------------------
 Total electronic           -66.00000000
 Total nuclear               66.00000000
 Total                       -0.00000000


       1-st cartesian moments: origin at (  0.00000000,  0.00000000,  0.00000000)
      ----------------------------------------------------------------------------
 Component                             X               Y               Z
 Total electronic           -40.21695833     26.27228372     10.41905518
 Total nuclear               38.19000077    -27.99697322    -10.54104726
 Total                       -2.02695757     -1.72468950     -0.12199209
      ----------------------------------------------------------------------------
      Total                  -5.15201224     -4.38372344     -0.31007295   Debye


       2-nd cartesian moments: origin at (  0.51369637, -0.32145117, -0.14261180)
      ----------------------------------------------------------------------------
 Component                            XX              XY              XZ              YY              YZ              ZZ
 Total electronic          -689.28971644    130.73693973     51.51327895   -393.28617522    -53.28811204    -54.34332950
 Total nuclear              645.15971984   -129.59949572    -51.09353047    358.25405890     53.76191128     15.33431706
 Total                      -44.12999660      1.13744401      0.41974848    -35.03211632      0.47379923    -39.00901244



      Cartesian  2-pole moment: origin at (  0.51369637, -0.32145117, -0.14261180)
      ----------------------------------------------------------------------------
 Component                            XX              XY              XZ              YY              YZ              ZZ
 Total electronic          -465.47496408    196.10540959     77.26991842    -21.46965225    -79.93216807    486.94461633
 Total nuclear              458.36553186   -194.39924358    -76.64029571     28.00704045     80.64286692   -486.37257231
 Total                       -7.10943222      1.70616601      0.62962272      6.53738820      0.71069885      0.57204402

--
 
      Von Neumann Entropy (Root   5) =  1.61487
 

      Mulliken population analysis for root number:  5
      -----------------------------------------------
 
 
++    Molecular charges:
      ------------------
 
      Mulliken charges per centre and basis function type
      ---------------------------------------------------
 
                N1      C2      N3      C4      C5      C6      O7      O8      H9      H10     H11     C12   
      1s       1.9956  1.9965  1.9956  1.9967  1.9965  1.9964  1.9956  1.9956  0.5290  0.4953  0.4994  1.9967
      2s       0.7415  0.6670  0.7421  0.6678  0.6498  0.6659  0.9176  0.9183  0.0000  0.0000  0.0000  0.6368
      2px      0.7960  0.6810  0.7878  0.6382  0.7292  0.6923  0.9648  0.9698  0.0000  0.0000  0.0000  0.6771
      2pz      0.9340  0.5673  0.8321  0.5851  0.6536  0.6639  0.8042  0.7408  0.0000  0.0000  0.0000  0.6935
      2py      0.7853  0.6545  0.7876  0.7186  0.6930  0.7003  1.0666  1.0769  0.0000  0.0000  0.0000  0.6808
      *s       0.8672  0.1054  0.8897  0.2300  0.4946  0.3645  0.9849  0.9924  0.2879  0.1391  0.1343  0.6130
      *px      0.4705 -0.0506  0.4085 -0.0762  0.2411  0.1000  0.5423  0.5494  0.0012  0.0024  0.0148  0.2808
      *pz      0.7102  0.3015  0.6501  0.3762  0.5317  0.4518  0.5472  0.4725  0.0042  0.0065  0.0072  0.3759
      *py      0.4107  0.0009  0.4972  0.0930  0.2135  0.2461  0.6514  0.6558  0.0098  0.0175  0.0056  0.3224
      *200     0.0165  0.0483  0.0240  0.0407  0.0262  0.0245  0.0125  0.0127  0.0000  0.0000  0.0000  0.0065
      *110     0.0098  0.0363  0.0092  0.0359  0.0123  0.0201  0.0093  0.0090  0.0000  0.0000  0.0000  0.0078
      *101     0.0048  0.0204  0.0071  0.0137  0.0079  0.0133  0.0087  0.0062  0.0000  0.0000  0.0000  0.0145
      *020     0.0182  0.0371  0.0094  0.0297  0.0213  0.0177  0.0056  0.0051  0.0000  0.0000  0.0000  0.0076
      *011     0.0074  0.0202  0.0022  0.0169  0.0070  0.0047  0.0033  0.0023  0.0000  0.0000  0.0000  0.0035
      *002    -0.0164 -0.0244 -0.0168 -0.0219 -0.0165 -0.0188 -0.0001 -0.0006  0.0000  0.0000  0.0000  0.0036
      Total    7.7513  5.0613  7.6257  5.3443  6.2612  5.9427  8.5138  8.4062  0.8321  0.6609  0.6614  6.3206
 
      N-E     -0.7513  0.9387 -0.6257  0.6557 -0.2612  0.0573 -0.5138 -0.4062  0.1679  0.3391  0.3386 -0.3206
 
                H13     H14     H15   
      1s       0.5295  0.5295  0.5328
      2s       0.0000  0.0000  0.0000
      2px      0.0000  0.0000  0.0000
      2pz      0.0000  0.0000  0.0000
      2py      0.0000  0.0000  0.0000
      *s       0.3217  0.3217  0.3447
      *px      0.0037  0.0044  0.0019
      *pz      0.0065  0.0066  0.0021
      *py      0.0027  0.0020  0.0088
      *200     0.0000  0.0000  0.0000
      *110     0.0000  0.0000  0.0000
      *101     0.0000  0.0000  0.0000
      *020     0.0000  0.0000  0.0000
      *011     0.0000  0.0000  0.0000
      *002     0.0000  0.0000  0.0000
      Total    0.8642  0.8641  0.8903
 
      N-E      0.1358  0.1359  0.1097
 
      Total electronic charge=   66.000000
 
      Total            charge=   -0.000000
 
      Mulliken Bond Order analysis
      ----------------------------
      Only bonds with order larger than 0.500 are printed
 
        Atom A        Atom B        Bond Order
        N1            C2              1.031
        N1            C6              0.870
        N1            H11             0.876
        C2            N3              0.933
        C2            O7              1.603
        N3            C4              0.883
        N3            H10             0.866
        C4            C5              1.450
        C4            O8              1.151
        C5            C6              1.066
        C5            C12             0.977
        C6            H9              0.960
        C12           H13             0.967
        C12           H14             0.967
        C12           H15             0.978
 
--
 
 

      Expectation values of various properties for root number:  5
      -----------------------------------------------------------
 
 
++    Molecular properties:
      ---------------------
 


       0-th cartesian moments: origin at (  0.00000000,  0.00000000,  0.00000000)
      ----------------------------------------------------------------------------
 Total electronic           -66.00000000
 Total nuclear               66.00000000
 Total                       -0.00000000


       1-st cartesian moments: origin at (  0.00000000,  0.00000000,  0.00000000)
      ----------------------------------------------------------------------------
 Component                             X               Y               Z
 Total electronic           -38.58833947     27.77943333     10.53337855
 Total nuclear               38.19000077    -27.99697322    -10.54104726
 Total                       -0.39833870     -0.21753988     -0.00766872
      ----------------------------------------------------------------------------
      Total                  -1.01247599     -0.55293122     -0.01949193   Debye


       2-nd cartesian moments: origin at (  0.51369637, -0.32145117, -0.14261180)
      ----------------------------------------------------------------------------
 Component                            XX              XY              XZ              YY              YZ              ZZ
 Total electronic          -689.64478689    132.50204949     51.76195119   -393.01399762    -53.33364486    -54.44919787
 Total nuclear              645.15971984   -129.59949572    -51.09353047    358.25405890     53.76191128     15.33431706
 Total                      -44.48506705      2.90255377      0.66842072    -34.75993872      0.42826641    -39.11488081



      Cartesian  2-pole moment: origin at (  0.51369637, -0.32145117, -0.14261180)
      ----------------------------------------------------------------------------
 Component                            XX              XY              XZ              YY              YZ              ZZ
 Total electronic          -465.91318915    198.75307423     77.64292678    -20.96700524    -80.00046729    486.88019439
 Total nuclear              458.36553186   -194.39924358    -76.64029571     28.00704045     80.64286692   -486.37257231
 Total                       -7.54765728      4.35383065      1.00263108      7.04003521      0.64239962      0.50762208

--
 
 
  Input file to MOLDEN was generated!
 
 
  Input file to MOLDEN was generated!
 
 
  Input file to MOLDEN was generated!
 
 
  Input file to MOLDEN was generated!
 
 
  Input file to MOLDEN was generated!
 
 
  Input file to MOLDEN was generated!
 
      Average orbitals are written to the RASORB file
      Natural orbitals for root   1 are written to the RASORB.1 file
      Natural orbitals for root   2 are written to the RASORB.2 file
      Natural orbitals for root   3 are written to the RASORB.3 file
      Natural orbitals for root   4 are written to the RASORB.4 file
      Natural orbitals for root   5 are written to the RASORB.5 file
      Spin density orbitals for root   1 are written to the SPDORB.1 file
      Spin density orbitals for root   2 are written to the SPDORB.2 file
      Spin density orbitals for root   3 are written to the SPDORB.3 file
      Spin density orbitals for root   4 are written to the SPDORB.4 file
      Spin density orbitals for root   5 are written to the SPDORB.5 file
 
 
  Timings
  -------
 
  - - - - - - - - - - - - - - - - - - - - - - - - - - - - - - - - - -
                                                    time    fraction
  - - - - - - - - - - - - - - - - - - - - - - - - - - - - - - - - - -
  1) Input section                         :        0.14        0.00
     - Input processing                    :        0.14        0.00
     - Create GUGA tables                  :        0.00        0.00
     - Create determinant tables           :        0.00        0.00
  2) Wave function optimization            :       26.73        0.90
     - transformation section              :       18.71        0.63
       . AO=>MO integral transformation    :        0.00        0.00
       . Fock-matrix generation            :        0.00        0.00
     - CI optimization                     :        6.94        0.23
       . construct Hdiag                   :        0.00        0.00
       . construct Hsel                    :        0.38        0.01
       . Davidson diagonalization          :        4.28        0.14
         .. sigma vector generation        :        4.18        0.14
            |-> aa/bb 1-electron           :        0.09        0.00
            |-> aa/bb 2-electron           :        1.71        0.06
            \-> alpha-beta                 :        2.39        0.08
                |-> C prefetch             :        0.06        0.00
                |-> matrix multiply        :        2.26        0.08
                \-> S scatter              :        0.01        0.00
         .. HCSCE                          :        0.00        0.00
         .. page_in/page_out               :        0.05        0.00
       . density matrix generation         :        2.07        0.07
            |-> aa/bb 1-electron           :        0.09        0.00
            |-> aa/bb 2-electron           :        0.99        0.03
            \-> alpha-beta                 :        0.77        0.03
     - orbital optimization                :        1.06        0.04
  3) Output section                        :        2.91        0.10
     - Create/update the file RELAX        :        1.22        0.04
     - Create/update the file RUNFILE      :        0.00        0.00
     - Create/update the file JOBIPH       :        1.69        0.06
 
  - - - - - - - - - - - - - - - - - - - - - - - - - - - - - - - - - -
     Total                                 :       29.78        0.00
  - - - - - - - - - - - - - - - - - - - - - - - - - - - - - - - - - -
 
++ I/O STATISTICS
 
  I. General I/O information
  - - - - - - - - - - - - - - - - - - - - - - - - - - - - - - - - - - - - - - - - - - -
  Unit  Name          Flsize      Write/Read            MBytes           Write/Read
                      (MBytes)       Calls              In/Out           Time, sec.
  - - - - - - - - - - - - - - - - - - - - - - - - - - - - - - - - - - - - - - - - - - -
   1  RUNFILE           1.34 .    2198/   23217 .     20.9/    169.7 .       0/       0
   2  ONEINT            0.00 .       0/    2218 .      0.0/    476.2 .       0/       0
   3  TRAINT            0.00 .      17/      14 .     11.8/      9.7 .       0/       0
   4  TEMP01            0.00 .       0/       0 .      0.0/      0.0 .       0/       0
   5  TEMP02            0.00 .      57/      99 .      2.2/      3.8 .       0/       0
   6  JOBIPH            0.00 .     520/     275 .     23.7/     11.2 .       0/       0
   7  CHRED             0.22 .       0/      38 .      0.0/      2.1 .       0/       0
   8  CHVEC1           74.59 .       0/     493 .      0.0/   1268.0 .       0/       0
   9  CHORST            0.03 .       0/      12 .      0.0/      0.0 .       0/       0
  10  CHOMAP            0.01 .       0/       0 .      0.0/      0.0 .       0/       0
  11  CIDIA             0.55 .     178/     178 .      1.4/      1.4 .       0/       0
  12  LUCVECT           0.28 .    3120/    4950 .     21.6/     38.5 .       0/       0
  13  HCFILE            0.06 .     680/     520 .      4.7/      4.7 .       0/       0
  14  LUSC1             0.11 .    2120/    3290 .     18.8/     29.7 .       0/       0
  15  LUSC2             0.11 .    1340/    2000 .     11.4/     16.6 .       0/       0
  16  LUSC3             0.11 .     900/     900 .      8.3/      8.3 .       0/       0
  17  LUSC34            0.06 .    2440/    2310 .     16.9/     21.3 .       0/       0
  18  LUSC35            0.00 .       0/       0 .      0.0/      0.0 .       0/       0
  19  LUSC36            0.00 .       0/       0 .      0.0/      0.0 .       0/       0
  20  LUSC37            0.00 .       0/       0 .      0.0/      0.0 .       0/       0
  21  LUSC38            0.00 .       0/       0 .      0.0/      0.0 .       0/       0
  22  LUSC39            0.00 .       0/       0 .      0.0/      0.0 .       0/       0
  23  LUSC40            0.00 .       0/       0 .      0.0/      0.0 .       0/       0
  24  LUMOUT            0.00 .       0/       0 .      0.0/      0.0 .       0/       0
  25  CHODIAG           0.10 .       0/      17 .      0.0/      1.8 .       0/       0
  - - - - - - - - - - - - - - - - - - - - - - - - - - - - - - - - - - - - - - - - - - -
   *  TOTAL            77.56 .   13570/   40531 .    141.7/   2063.1 .       0/       0
  - - - - - - - - - - - - - - - - - - - - - - - - - - - - - - - - - - - - - - - - - - -
 
  II. I/O Access Patterns
  - - - - - - - - - - - - - - - - - - - -
  Unit  Name               % of random
                         Write/Read calls
  - - - - - - - - - - - - - - - - - - - -
   1  RUNFILE             28.6/  11.3
   2  ONEINT               0.0/  18.6
   3  TRAINT              94.1/ 100.0
   4  TEMP01               0.0/   0.0
   5  TEMP02              98.2/ 100.0
   6  JOBIPH              97.1/ 100.0
   7  CHRED                0.0/  44.7
   8  CHVEC1               0.0/   3.2
   9  CHORST               0.0/   0.0
  10  CHOMAP               0.0/   0.0
  11  CIDIA                9.0/   9.6
  12  LUCVECT             12.3/  14.0
  13  HCFILE              12.4/  16.3
  14  LUSC1               11.3/  13.1
  15  LUSC2               11.5/  12.5
  16  LUSC3               11.0/  11.1
  17  LUSC34              12.5/  16.7
  18  LUSC35               0.0/   0.0
  19  LUSC36               0.0/   0.0
  20  LUSC37               0.0/   0.0
  21  LUSC38               0.0/   0.0
  22  LUSC39               0.0/   0.0
  23  LUSC40               0.0/   0.0
  24  LUMOUT               0.0/   0.0
  25  CHODIAG              0.0/   0.0
  - - - - - - - - - - - - - - - - - - - -
--
--- Stop Module: rasscf at Fri May  5 16:45:23 2023 /rc=_RC_ALL_IS_WELL_ ---
*** files: cas2.rasscf.molden cas2.rasscf.molden.1 cas2.rasscf.molden.2 cas2.rasscf.molden.3 cas2.rasscf.molden.4 cas2.rasscf.molden.5 cas2.RasOrb cas2.RasOrb.1 cas2.RasOrb.2
           cas2.RasOrb.3 cas2.RasOrb.4 cas2.RasOrb.5 cas2.rasscf.h5 cas2.SpdOrb.1 cas2.SpdOrb.2 cas2.SpdOrb.3 cas2.SpdOrb.4 cas2.SpdOrb.5 xmldump
    saved to directory /home/marlenne/thymine/Thymine/MOLCAS/3.Ground_State/1.GS_non-planar/try2/orbs
--- Module rasscf spent 29 seconds ---
 Happy landing!
    Timing: Wall=32.36 User=31.31 System=0.64
