[Molden Format]
[N_Atoms]
                    15
[Atoms] (AU)
N1          1      7          -2.26361295     -1.80425317     -0.19278941
C2          2      6          -2.34156491      0.78911924      0.15628445
N3          3      7           0.04984317      1.85767091      0.17210936
C4          4      6           2.39798395      0.66181958     -0.11151457
C5          5      6           2.24507909     -2.07465843     -0.46744332
C6          6      6          -0.06531349     -3.17380825     -0.49091938
O7          7      8          -4.30393188      1.98623181      0.41887497
O8          8      8           4.37131099      1.88775127     -0.05325324
H9          9      1          -0.31864568     -5.18622392     -0.74521571
H10        10      1           0.09739049      3.75308006      0.42109187
H11        11      1          -3.96381183     -2.66165408     -0.21657819
C12        12      6           4.66891759     -3.49308988     -0.78439616
H13        13      1           5.70473675     -2.79266365     -2.41926684
H14        14      1           5.87951525     -3.22657360      0.85867468
H15        15      1           4.31755800     -5.50502040     -1.03203276
[Charge] (Mulliken)
 -0.751337530955129     
  0.938715870731192     
 -0.625689354390663     
  0.655690606871884     
 -0.261206662412363     
  5.728936306098831E-002
 -0.513782339445227     
 -0.406150268683481     
  0.167877120729921     
  0.339142099132105     
  0.338636493043215     
 -0.320626004132158     
  0.135842011814998     
  0.135869269117451     
  0.109729325514352     
[GTO] (AU)
   1
   s   6
  0.417351146E+04  0.183477216E-02
  0.627457911E+03  0.139946270E-01
  0.142902093E+03  0.685865518E-01
  0.402343293E+02  0.232240873E+00
  0.128202129E+02  0.469069948E+00
  0.439043701E+01  0.360455199E+00
   s   3
  0.116263619E+02 -0.114961182E+00
  0.271627981E+01 -0.169117479E+00
  0.772218397E+00  0.114585195E+01
   s   1
  0.212031497E+00  0.100000000E+01
   p   3
  0.116263619E+02  0.675797439E-01
  0.271627981E+01  0.323907296E+00
  0.772218397E+00  0.740895140E+00
   p   1
  0.212031497E+00  0.100000000E+01
   d   1
  0.800000000E+00  0.100000000E+01
 
   2
   s   6
  0.304752488E+04  0.183473713E-02
  0.457369518E+03  0.140373228E-01
  0.103948685E+03  0.688426223E-01
  0.292101553E+02  0.232184443E+00
  0.928666296E+01  0.467941348E+00
  0.316392696E+01  0.362311985E+00
   s   3
  0.786827235E+01 -0.119332420E+00
  0.188128854E+01 -0.160854152E+00
  0.544249258E+00  0.114345644E+01
   s   1
  0.168714478E+00  0.100000000E+01
   p   3
  0.786827235E+01  0.689990666E-01
  0.188128854E+01  0.316423961E+00
  0.544249258E+00  0.744308291E+00
   p   1
  0.168714478E+00  0.100000000E+01
   d   1
  0.800000000E+00  0.100000000E+01
 
   3
   s   6
  0.417351146E+04  0.183477216E-02
  0.627457911E+03  0.139946270E-01
  0.142902093E+03  0.685865518E-01
  0.402343293E+02  0.232240873E+00
  0.128202129E+02  0.469069948E+00
  0.439043701E+01  0.360455199E+00
   s   3
  0.116263619E+02 -0.114961182E+00
  0.271627981E+01 -0.169117479E+00
  0.772218397E+00  0.114585195E+01
   s   1
  0.212031497E+00  0.100000000E+01
   p   3
  0.116263619E+02  0.675797439E-01
  0.271627981E+01  0.323907296E+00
  0.772218397E+00  0.740895140E+00
   p   1
  0.212031497E+00  0.100000000E+01
   d   1
  0.800000000E+00  0.100000000E+01
 
   4
   s   6
  0.304752488E+04  0.183473713E-02
  0.457369518E+03  0.140373228E-01
  0.103948685E+03  0.688426223E-01
  0.292101553E+02  0.232184443E+00
  0.928666296E+01  0.467941348E+00
  0.316392696E+01  0.362311985E+00
   s   3
  0.786827235E+01 -0.119332420E+00
  0.188128854E+01 -0.160854152E+00
  0.544249258E+00  0.114345644E+01
   s   1
  0.168714478E+00  0.100000000E+01
   p   3
  0.786827235E+01  0.689990666E-01
  0.188128854E+01  0.316423961E+00
  0.544249258E+00  0.744308291E+00
   p   1
  0.168714478E+00  0.100000000E+01
   d   1
  0.800000000E+00  0.100000000E+01
 
   5
   s   6
  0.304752488E+04  0.183473713E-02
  0.457369518E+03  0.140373228E-01
  0.103948685E+03  0.688426223E-01
  0.292101553E+02  0.232184443E+00
  0.928666296E+01  0.467941348E+00
  0.316392696E+01  0.362311985E+00
   s   3
  0.786827235E+01 -0.119332420E+00
  0.188128854E+01 -0.160854152E+00
  0.544249258E+00  0.114345644E+01
   s   1
  0.168714478E+00  0.100000000E+01
   p   3
  0.786827235E+01  0.689990666E-01
  0.188128854E+01  0.316423961E+00
  0.544249258E+00  0.744308291E+00
   p   1
  0.168714478E+00  0.100000000E+01
   d   1
  0.800000000E+00  0.100000000E+01
 
   6
   s   6
  0.304752488E+04  0.183473713E-02
  0.457369518E+03  0.140373228E-01
  0.103948685E+03  0.688426223E-01
  0.292101553E+02  0.232184443E+00
  0.928666296E+01  0.467941348E+00
  0.316392696E+01  0.362311985E+00
   s   3
  0.786827235E+01 -0.119332420E+00
  0.188128854E+01 -0.160854152E+00
  0.544249258E+00  0.114345644E+01
   s   1
  0.168714478E+00  0.100000000E+01
   p   3
  0.786827235E+01  0.689990666E-01
  0.188128854E+01  0.316423961E+00
  0.544249258E+00  0.744308291E+00
   p   1
  0.168714478E+00  0.100000000E+01
   d   1
  0.800000000E+00  0.100000000E+01
 
   7
   s   6
  0.548467166E+04  0.183107443E-02
  0.825234946E+03  0.139501722E-01
  0.188046958E+03  0.684450781E-01
  0.529645000E+02  0.232714336E+00
  0.168975704E+02  0.470192898E+00
  0.579963534E+01  0.358520853E+00
   s   3
  0.155396162E+02 -0.110777550E+00
  0.359993359E+01 -0.148026263E+00
  0.101376175E+01  0.113076702E+01
   s   1
  0.270005823E+00  0.100000000E+01
   p   3
  0.155396162E+02  0.708742682E-01
  0.359993359E+01  0.339752839E+00
  0.101376175E+01  0.727158577E+00
   p   1
  0.270005823E+00  0.100000000E+01
   d   1
  0.800000000E+00  0.100000000E+01
 
   8
   s   6
  0.548467166E+04  0.183107443E-02
  0.825234946E+03  0.139501722E-01
  0.188046958E+03  0.684450781E-01
  0.529645000E+02  0.232714336E+00
  0.168975704E+02  0.470192898E+00
  0.579963534E+01  0.358520853E+00
   s   3
  0.155396162E+02 -0.110777550E+00
  0.359993359E+01 -0.148026263E+00
  0.101376175E+01  0.113076702E+01
   s   1
  0.270005823E+00  0.100000000E+01
   p   3
  0.155396162E+02  0.708742682E-01
  0.359993359E+01  0.339752839E+00
  0.101376175E+01  0.727158577E+00
   p   1
  0.270005823E+00  0.100000000E+01
   d   1
  0.800000000E+00  0.100000000E+01
 
   9
   s   3
  0.187311370E+02  0.334946043E-01
  0.282539437E+01  0.234726954E+00
  0.640121692E+00  0.813757326E+00
   s   1
  0.161277759E+00  0.100000000E+01
   p   1
  0.110000000E+01  0.100000000E+01
 
  10
   s   3
  0.187311370E+02  0.334946043E-01
  0.282539437E+01  0.234726954E+00
  0.640121692E+00  0.813757326E+00
   s   1
  0.161277759E+00  0.100000000E+01
   p   1
  0.110000000E+01  0.100000000E+01
 
  11
   s   3
  0.187311370E+02  0.334946043E-01
  0.282539437E+01  0.234726954E+00
  0.640121692E+00  0.813757326E+00
   s   1
  0.161277759E+00  0.100000000E+01
   p   1
  0.110000000E+01  0.100000000E+01
 
  12
   s   6
  0.304752488E+04  0.183473713E-02
  0.457369518E+03  0.140373228E-01
  0.103948685E+03  0.688426223E-01
  0.292101553E+02  0.232184443E+00
  0.928666296E+01  0.467941348E+00
  0.316392696E+01  0.362311985E+00
   s   3
  0.786827235E+01 -0.119332420E+00
  0.188128854E+01 -0.160854152E+00
  0.544249258E+00  0.114345644E+01
   s   1
  0.168714478E+00  0.100000000E+01
   p   3
  0.786827235E+01  0.689990666E-01
  0.188128854E+01  0.316423961E+00
  0.544249258E+00  0.744308291E+00
   p   1
  0.168714478E+00  0.100000000E+01
   d   1
  0.800000000E+00  0.100000000E+01
 
  13
   s   3
  0.187311370E+02  0.334946043E-01
  0.282539437E+01  0.234726954E+00
  0.640121692E+00  0.813757326E+00
   s   1
  0.161277759E+00  0.100000000E+01
   p   1
  0.110000000E+01  0.100000000E+01
 
  14
   s   3
  0.187311370E+02  0.334946043E-01
  0.282539437E+01  0.234726954E+00
  0.640121692E+00  0.813757326E+00
   s   1
  0.161277759E+00  0.100000000E+01
   p   1
  0.110000000E+01  0.100000000E+01
 
  15
   s   3
  0.187311370E+02  0.334946043E-01
  0.282539437E+01  0.234726954E+00
  0.640121692E+00  0.813757326E+00
   s   1
  0.161277759E+00  0.100000000E+01
   p   1
  0.110000000E+01  0.100000000E+01
 
[MO]
Sym=     1a  
Ene=   -20.6030
Spin= Alpha
Occup=    1.00000
   1        -0.00001167
   2        -0.00004688
   3         0.00027813
   4         0.00000284
   5        -0.00003126
   6        -0.00000430
   7         0.00005079
   8         0.00013035
   9         0.00001465
  10        -0.00001192
  11        -0.00000334
  12        -0.00005556
  13         0.00012204
  14         0.00001360
  15         0.00000152
  16        -0.00000869
  17         0.00051765
  18        -0.00078529
  19         0.00003405
  20        -0.00002241
  21        -0.00000478
  22         0.00044460
  23        -0.00027274
  24        -0.00005970
  25        -0.00064247
  26        -0.00025926
  27        -0.00006031
  28         0.00042538
  29         0.00009263
  30        -0.00005458
  31        -0.00001001
  32        -0.00003955
  33         0.00025331
  34         0.00002807
  35         0.00001040
  36        -0.00000010
  37        -0.00013099
  38        -0.00011198
  39        -0.00000798
  40        -0.00008863
  41         0.00007499
  42        -0.00004896
  43         0.00008549
  44         0.00001372
  45         0.00001467
  46         0.00001239
  47         0.00004990
  48        -0.00020428
  49        -0.00002659
  50         0.00001387
  51         0.00000326
  52         0.00032622
  53         0.00032977
  54         0.00002657
  55         0.00002921
  56         0.00002424
  57         0.00002338
  58        -0.00002822
  59        -0.00000414
  60         0.00000169
  61        -0.00000360
  62        -0.00002536
  63         0.00058474
  64        -0.00000587
  65         0.00000992
  66         0.00000163
  67        -0.00026113
  68         0.00014582
  69         0.00003328
  70         0.00000754
  71        -0.00000330
  72        -0.00000105
  73        -0.00001548
  74        -0.00000260
  75         0.00000051
  76         0.00000758
  77         0.00004391
  78        -0.00038413
  79        -0.00002204
  80         0.00001960
  81         0.00000378
  82        -0.00012226
  83        -0.00031240
  84        -0.00003505
  85         0.00003896
  86        -0.00002386
  87         0.00001664
  88        -0.00001147
  89        -0.00000285
  90        -0.00000569
  91         0.99468025
  92         0.02100526
  93         0.00467188
  94         0.00136100
  95        -0.00082966
  96        -0.00018203
  97         0.00001608
  98        -0.00001198
  99        -0.00000244
 100        -0.00372305
 101        -0.00390738
 102        -0.00410972
 103        -0.00021186
 104        -0.00005216
 105         0.00004337
 106         0.00001507
 107         0.00006019
 108        -0.00038597
 109        -0.00000623
 110        -0.00000079
 111         0.00000023
 112         0.00008505
 113         0.00003294
 114        -0.00000014
 115         0.00003217
 116         0.00003739
 117         0.00003676
 118        -0.00000304
 119        -0.00000012
 120         0.00000026
 121        -0.00000589
 122        -0.00010403
 123         0.00000600
 124         0.00000793
 125         0.00000074
 126        -0.00002459
 127        -0.00002584
 128        -0.00001292
 129         0.00004049
 130         0.00000605
 131        -0.00002910
 132        -0.00002126
 133        -0.00004060
 134        -0.00000742
 135         0.00000117
 136         0.00000102
 137         0.00000613
 138         0.00005213
 139         0.00000051
 140         0.00000040
 141         0.00000003
 142        -0.00000961
 143         0.00000475
 144         0.00000111
 145        -0.00000251
 146         0.00000127
 147         0.00000183
 148         0.00000408
 149         0.00000081
 150        -0.00000031
 151         0.00000157
 152        -0.00000455
 153        -0.00000043
 154         0.00000064
 155        -0.00000097
 156         0.00000157
 157        -0.00000454
 158        -0.00000032
 159         0.00000035
 160         0.00000114
 161        -0.00000175
 162         0.00000480
 163        -0.00000183
 164         0.00000007
 165         0.00000011
Sym=     1a  
Ene=   -20.6030
Spin= Beta
Occup=    1.00000
   1        -0.00001167
   2        -0.00004688
   3         0.00027813
   4         0.00000284
   5        -0.00003126
   6        -0.00000430
   7         0.00005079
   8         0.00013035
   9         0.00001465
  10        -0.00001192
  11        -0.00000334
  12        -0.00005556
  13         0.00012204
  14         0.00001360
  15         0.00000152
  16        -0.00000869
  17         0.00051765
  18        -0.00078529
  19         0.00003405
  20        -0.00002241
  21        -0.00000478
  22         0.00044460
  23        -0.00027274
  24        -0.00005970
  25        -0.00064247
  26        -0.00025926
  27        -0.00006031
  28         0.00042538
  29         0.00009263
  30        -0.00005458
  31        -0.00001001
  32        -0.00003955
  33         0.00025331
  34         0.00002807
  35         0.00001040
  36        -0.00000010
  37        -0.00013099
  38        -0.00011198
  39        -0.00000798
  40        -0.00008863
  41         0.00007499
  42        -0.00004896
  43         0.00008549
  44         0.00001372
  45         0.00001467
  46         0.00001239
  47         0.00004990
  48        -0.00020428
  49        -0.00002659
  50         0.00001387
  51         0.00000326
  52         0.00032622
  53         0.00032977
  54         0.00002657
  55         0.00002921
  56         0.00002424
  57         0.00002338
  58        -0.00002822
  59        -0.00000414
  60         0.00000169
  61        -0.00000360
  62        -0.00002536
  63         0.00058474
  64        -0.00000587
  65         0.00000992
  66         0.00000163
  67        -0.00026113
  68         0.00014582
  69         0.00003328
  70         0.00000754
  71        -0.00000330
  72        -0.00000105
  73        -0.00001548
  74        -0.00000260
  75         0.00000051
  76         0.00000758
  77         0.00004391
  78        -0.00038413
  79        -0.00002204
  80         0.00001960
  81         0.00000378
  82        -0.00012226
  83        -0.00031240
  84        -0.00003505
  85         0.00003896
  86        -0.00002386
  87         0.00001664
  88        -0.00001147
  89        -0.00000285
  90        -0.00000569
  91         0.99468025
  92         0.02100526
  93         0.00467188
  94         0.00136100
  95        -0.00082966
  96        -0.00018203
  97         0.00001608
  98        -0.00001198
  99        -0.00000244
 100        -0.00372305
 101        -0.00390738
 102        -0.00410972
 103        -0.00021186
 104        -0.00005216
 105         0.00004337
 106         0.00001507
 107         0.00006019
 108        -0.00038597
 109        -0.00000623
 110        -0.00000079
 111         0.00000023
 112         0.00008505
 113         0.00003294
 114        -0.00000014
 115         0.00003217
 116         0.00003739
 117         0.00003676
 118        -0.00000304
 119        -0.00000012
 120         0.00000026
 121        -0.00000589
 122        -0.00010403
 123         0.00000600
 124         0.00000793
 125         0.00000074
 126        -0.00002459
 127        -0.00002584
 128        -0.00001292
 129         0.00004049
 130         0.00000605
 131        -0.00002910
 132        -0.00002126
 133        -0.00004060
 134        -0.00000742
 135         0.00000117
 136         0.00000102
 137         0.00000613
 138         0.00005213
 139         0.00000051
 140         0.00000040
 141         0.00000003
 142        -0.00000961
 143         0.00000475
 144         0.00000111
 145        -0.00000251
 146         0.00000127
 147         0.00000183
 148         0.00000408
 149         0.00000081
 150        -0.00000031
 151         0.00000157
 152        -0.00000455
 153        -0.00000043
 154         0.00000064
 155        -0.00000097
 156         0.00000157
 157        -0.00000454
 158        -0.00000032
 159         0.00000035
 160         0.00000114
 161        -0.00000175
 162         0.00000480
 163        -0.00000183
 164         0.00000007
 165         0.00000011
Sym=     2a  
Ene=   -20.5830
Spin= Alpha
Occup=    1.00000
   1        -0.00000096
   2        -0.00000233
   3         0.00015342
   4         0.00000405
   5         0.00000515
   6         0.00000047
   7        -0.00001031
   8         0.00006282
   9         0.00000890
  10        -0.00000213
  11        -0.00000878
  12         0.00000479
  13         0.00001539
  14         0.00000249
  15        -0.00000297
  16         0.00001048
  17         0.00003853
  18         0.00003476
  19         0.00002922
  20         0.00001421
  21         0.00000035
  22        -0.00016249
  23         0.00027001
  24         0.00004451
  25         0.00003318
  26         0.00002536
  27         0.00001858
  28         0.00002785
  29         0.00000283
  30        -0.00000046
  31        -0.00001011
  32        -0.00003432
  33         0.00016925
  34        -0.00004409
  35         0.00001499
  36         0.00000433
  37         0.00023558
  38        -0.00001701
  39        -0.00001477
  40        -0.00009912
  41         0.00005811
  42        -0.00004896
  43        -0.00005484
  44        -0.00000438
  45         0.00001972
  46        -0.00000985
  47         0.00049497
  48        -0.00058359
  49        -0.00002677
  50        -0.00000472
  51         0.00000079
  52        -0.00052633
  53        -0.00055539
  54        -0.00004591
  55        -0.00059699
  56        -0.00025061
  57        -0.00006352
  58        -0.00038460
  59        -0.00001843
  60        -0.00000833
  61        -0.00000133
  62        -0.00000375
  63        -0.00017369
  64        -0.00002163
  65        -0.00001219
  66        -0.00000047
  67         0.00020764
  68        -0.00007421
  69        -0.00002093
  70        -0.00001111
  71         0.00000364
  72        -0.00001769
  73        -0.00008636
  74        -0.00001199
  75         0.00000810
  76         0.00000163
  77         0.00001948
  78         0.00010101
  79         0.00002050
  80         0.00000811
  81        -0.00000001
  82         0.00002029
  83         0.00001223
  84         0.00000055
  85         0.00003323
  86        -0.00002819
  87         0.00000277
  88        -0.00000617
  89        -0.00000266
  90        -0.00000449
  91         0.00000945
  92         0.00005254
  93        -0.00032276
  94         0.00000571
  95        -0.00000072
  96        -0.00000039
  97        -0.00008241
  98         0.00002629
  99         0.00000782
 100         0.00002599
 101         0.00003203
 102         0.00003304
 103         0.00000455
 104         0.00000104
 105        -0.00000041
 106         0.99467048
 107         0.02097770
 108         0.00482326
 109        -0.00132695
 110        -0.00078068
 111        -0.00003336
 112        -0.00002911
 113        -0.00000908
 114         0.00000034
 115        -0.00376553
 116        -0.00393079
 117        -0.00415446
 118         0.00019390
 119         0.00000177
 120         0.00002448
 121         0.00000628
 122         0.00000004
 123        -0.00000054
 124         0.00000986
 125         0.00000134
 126        -0.00003053
 127        -0.00004259
 128         0.00000371
 129         0.00003396
 130         0.00000430
 131        -0.00000943
 132        -0.00000383
 133        -0.00000252
 134        -0.00000402
 135        -0.00000040
 136         0.00000320
 137         0.00001784
 138        -0.00009354
 139         0.00001748
 140         0.00001350
 141         0.00000086
 142         0.00003463
 143        -0.00014706
 144        -0.00002122
 145        -0.00001671
 146         0.00001242
 147         0.00000566
 148         0.00001027
 149         0.00000274
 150         0.00000048
 151         0.00002407
 152        -0.00001740
 153         0.00000308
 154         0.00001073
 155         0.00000104
 156         0.00002409
 157        -0.00001762
 158         0.00000312
 159         0.00001066
 160         0.00000148
 161        -0.00001329
 162        -0.00007537
 163        -0.00000449
 164        -0.00000785
 165        -0.00000081
Sym=     2a  
Ene=   -20.5830
Spin= Beta
Occup=    1.00000
   1        -0.00000096
   2        -0.00000233
   3         0.00015342
   4         0.00000405
   5         0.00000515
   6         0.00000047
   7        -0.00001031
   8         0.00006282
   9         0.00000890
  10        -0.00000213
  11        -0.00000878
  12         0.00000479
  13         0.00001539
  14         0.00000249
  15        -0.00000297
  16         0.00001048
  17         0.00003853
  18         0.00003476
  19         0.00002922
  20         0.00001421
  21         0.00000035
  22        -0.00016249
  23         0.00027001
  24         0.00004451
  25         0.00003318
  26         0.00002536
  27         0.00001858
  28         0.00002785
  29         0.00000283
  30        -0.00000046
  31        -0.00001011
  32        -0.00003432
  33         0.00016925
  34        -0.00004409
  35         0.00001499
  36         0.00000433
  37         0.00023558
  38        -0.00001701
  39        -0.00001477
  40        -0.00009912
  41         0.00005811
  42        -0.00004896
  43        -0.00005484
  44        -0.00000438
  45         0.00001972
  46        -0.00000985
  47         0.00049497
  48        -0.00058359
  49        -0.00002677
  50        -0.00000472
  51         0.00000079
  52        -0.00052633
  53        -0.00055539
  54        -0.00004591
  55        -0.00059699
  56        -0.00025061
  57        -0.00006352
  58        -0.00038460
  59        -0.00001843
  60        -0.00000833
  61        -0.00000133
  62        -0.00000375
  63        -0.00017369
  64        -0.00002163
  65        -0.00001219
  66        -0.00000047
  67         0.00020764
  68        -0.00007421
  69        -0.00002093
  70        -0.00001111
  71         0.00000364
  72        -0.00001769
  73        -0.00008636
  74        -0.00001199
  75         0.00000810
  76         0.00000163
  77         0.00001948
  78         0.00010101
  79         0.00002050
  80         0.00000811
  81        -0.00000001
  82         0.00002029
  83         0.00001223
  84         0.00000055
  85         0.00003323
  86        -0.00002819
  87         0.00000277
  88        -0.00000617
  89        -0.00000266
  90        -0.00000449
  91         0.00000945
  92         0.00005254
  93        -0.00032276
  94         0.00000571
  95        -0.00000072
  96        -0.00000039
  97        -0.00008241
  98         0.00002629
  99         0.00000782
 100         0.00002599
 101         0.00003203
 102         0.00003304
 103         0.00000455
 104         0.00000104
 105        -0.00000041
 106         0.99467048
 107         0.02097770
 108         0.00482326
 109        -0.00132695
 110        -0.00078068
 111        -0.00003336
 112        -0.00002911
 113        -0.00000908
 114         0.00000034
 115        -0.00376553
 116        -0.00393079
 117        -0.00415446
 118         0.00019390
 119         0.00000177
 120         0.00002448
 121         0.00000628
 122         0.00000004
 123        -0.00000054
 124         0.00000986
 125         0.00000134
 126        -0.00003053
 127        -0.00004259
 128         0.00000371
 129         0.00003396
 130         0.00000430
 131        -0.00000943
 132        -0.00000383
 133        -0.00000252
 134        -0.00000402
 135        -0.00000040
 136         0.00000320
 137         0.00001784
 138        -0.00009354
 139         0.00001748
 140         0.00001350
 141         0.00000086
 142         0.00003463
 143        -0.00014706
 144        -0.00002122
 145        -0.00001671
 146         0.00001242
 147         0.00000566
 148         0.00001027
 149         0.00000274
 150         0.00000048
 151         0.00002407
 152        -0.00001740
 153         0.00000308
 154         0.00001073
 155         0.00000104
 156         0.00002409
 157        -0.00001762
 158         0.00000312
 159         0.00001066
 160         0.00000148
 161        -0.00001329
 162        -0.00007537
 163        -0.00000449
 164        -0.00000785
 165        -0.00000081
Sym=     3a  
Ene=   -15.6390
Spin= Alpha
Occup=    1.00000
   1         0.99500511
   2         0.02542127
   3        -0.00480496
   4         0.00004390
   5         0.00012219
   6         0.00001448
   7        -0.00122281
   8        -0.00100093
   9        -0.00006878
  10        -0.00326626
  11        -0.00335628
  12        -0.00330041
  13         0.00005599
  14         0.00000541
  15        -0.00001182
  16         0.00001011
  17         0.00020313
  18         0.00172983
  19         0.00002459
  20        -0.00025441
  21        -0.00003507
  22         0.00071293
  23        -0.00199306
  24        -0.00030261
  25        -0.00005176
  26        -0.00015499
  27        -0.00007093
  28        -0.00002745
  29        -0.00000474
  30        -0.00001164
  31        -0.00081385
  32         0.00000441
  33        -0.00082428
  34         0.00005424
  35         0.00000432
  36        -0.00000225
  37        -0.00041951
  38         0.00071196
  39         0.00011685
  40         0.00006040
  41         0.00004737
  42        -0.00000650
  43        -0.00001262
  44        -0.00000583
  45         0.00000913
  46        -0.00000504
  47        -0.00004455
  48         0.00143182
  49        -0.00002965
  50         0.00000204
  51         0.00000186
  52        -0.00074801
  53        -0.00062813
  54        -0.00004384
  55         0.00000765
  56         0.00002373
  57        -0.00001123
  58         0.00000114
  59        -0.00000105
  60         0.00000541
  61         0.00002671
  62         0.00013377
  63        -0.00208846
  64         0.00001183
  65         0.00003924
  66         0.00000464
  67         0.00135263
  68        -0.00097943
  69        -0.00020208
  70        -0.00002872
  71         0.00003058
  72         0.00002889
  73         0.00000751
  74         0.00000455
  75        -0.00000021
  76         0.00000807
  77         0.00013395
  78         0.00273160
  79        -0.00018138
  80         0.00009794
  81         0.00002264
  82        -0.00028105
  83         0.00184027
  84         0.00025946
  85        -0.00011093
  86        -0.00001784
  87        -0.00008651
  88         0.00004165
  89         0.00000696
  90         0.00000841
  91        -0.00002934
  92        -0.00016491
  93         0.00100878
  94        -0.00004453
  95        -0.00001171
  96         0.00000082
  97         0.00033167
  98         0.00018354
  99         0.00000697
 100        -0.00003031
 101        -0.00015116
 102        -0.00012397
 103         0.00004112
 104        -0.00000018
 105        -0.00000646
 106        -0.00001514
 107        -0.00006421
 108         0.00043884
 109         0.00001240
 110        -0.00000721
 111        -0.00000162
 112        -0.00007702
 113         0.00000852
 114         0.00000523
 115        -0.00003693
 116        -0.00004799
 117        -0.00004480
 118        -0.00001037
 119        -0.00000187
 120         0.00000008
 121         0.00001355
 122         0.00044047
 123         0.00004825
 124        -0.00003347
 125        -0.00000698
 126        -0.00009715
 127         0.00000284
 128         0.00000726
 129         0.00000017
 130        -0.00000038
 131         0.00011197
 132         0.00000166
 133        -0.00013130
 134        -0.00007144
 135        -0.00000249
 136        -0.00000632
 137        -0.00000747
 138        -0.00052596
 139         0.00003096
 140        -0.00000923
 141        -0.00000287
 142         0.00011392
 143        -0.00006611
 144        -0.00001473
 145        -0.00001640
 146        -0.00001344
 147        -0.00002590
 148        -0.00000904
 149        -0.00000181
 150         0.00000245
 151         0.00000929
 152         0.00001436
 153         0.00000508
 154        -0.00000631
 155         0.00000815
 156         0.00000927
 157         0.00001433
 158         0.00000411
 159        -0.00000390
 160        -0.00001000
 161        -0.00000424
 162         0.00005734
 163         0.00000269
 164         0.00000722
 165         0.00000080
Sym=     3a  
Ene=   -15.6390
Spin= Beta
Occup=    1.00000
   1         0.99500511
   2         0.02542127
   3        -0.00480496
   4         0.00004390
   5         0.00012219
   6         0.00001448
   7        -0.00122281
   8        -0.00100093
   9        -0.00006878
  10        -0.00326626
  11        -0.00335628
  12        -0.00330041
  13         0.00005599
  14         0.00000541
  15        -0.00001182
  16         0.00001011
  17         0.00020313
  18         0.00172983
  19         0.00002459
  20        -0.00025441
  21        -0.00003507
  22         0.00071293
  23        -0.00199306
  24        -0.00030261
  25        -0.00005176
  26        -0.00015499
  27        -0.00007093
  28        -0.00002745
  29        -0.00000474
  30        -0.00001164
  31        -0.00081385
  32         0.00000441
  33        -0.00082428
  34         0.00005424
  35         0.00000432
  36        -0.00000225
  37        -0.00041951
  38         0.00071196
  39         0.00011685
  40         0.00006040
  41         0.00004737
  42        -0.00000650
  43        -0.00001262
  44        -0.00000583
  45         0.00000913
  46        -0.00000504
  47        -0.00004455
  48         0.00143182
  49        -0.00002965
  50         0.00000204
  51         0.00000186
  52        -0.00074801
  53        -0.00062813
  54        -0.00004384
  55         0.00000765
  56         0.00002373
  57        -0.00001123
  58         0.00000114
  59        -0.00000105
  60         0.00000541
  61         0.00002671
  62         0.00013377
  63        -0.00208846
  64         0.00001183
  65         0.00003924
  66         0.00000464
  67         0.00135263
  68        -0.00097943
  69        -0.00020208
  70        -0.00002872
  71         0.00003058
  72         0.00002889