[Molden Format]
[N_Atoms]
                    15
[Atoms] (AU)
N1          1      7          -2.26361295     -1.80425317     -0.19278941
C2          2      6          -2.34156491      0.78911924      0.15628445
N3          3      7           0.04984317      1.85767091      0.17210936
C4          4      6           2.39798395      0.66181958     -0.11151457
C5          5      6           2.24507909     -2.07465843     -0.46744332
C6          6      6          -0.06531349     -3.17380825     -0.49091938
O7          7      8          -4.30393188      1.98623181      0.41887497
O8          8      8           4.37131099      1.88775127     -0.05325324
H9          9      1          -0.31864568     -5.18622392     -0.74521571
H10        10      1           0.09739049      3.75308006      0.42109187
H11        11      1          -3.96381183     -2.66165408     -0.21657819
C12        12      6           4.66891759     -3.49308988     -0.78439616
H13        13      1           5.70473675     -2.79266365     -2.41926684
H14        14      1           5.87951525     -3.22657360      0.85867468
H15        15      1           4.31755800     -5.50502040     -1.03203276
[Charge] (Mulliken)
 -0.787537577078921     
   1.02985578185524     
 -0.838574719614918     
  0.837263730284938     
 -0.214371543626487     
  0.208270613485983     
 -0.617739786648700     
 -0.607948703123927     
  0.195440556254431     
  0.353018697998900     
  0.346392812144616     
 -0.313464363361655     
  0.148825945745822     
  0.148857825229947     
  0.111710730438961     
[GTO] (AU)
   1
   s   6
  0.417351146E+04  0.183477216E-02
  0.627457911E+03  0.139946270E-01
  0.142902093E+03  0.685865518E-01
  0.402343293E+02  0.232240873E+00
  0.128202129E+02  0.469069948E+00
  0.439043701E+01  0.360455199E+00
   s   3
  0.116263619E+02 -0.114961182E+00
  0.271627981E+01 -0.169117479E+00
  0.772218397E+00  0.114585195E+01
   s   1
  0.212031497E+00  0.100000000E+01
   p   3
  0.116263619E+02  0.675797439E-01
  0.271627981E+01  0.323907296E+00
  0.772218397E+00  0.740895140E+00
   p   1
  0.212031497E+00  0.100000000E+01
   d   1
  0.800000000E+00  0.100000000E+01
 
   2
   s   6
  0.304752488E+04  0.183473713E-02
  0.457369518E+03  0.140373228E-01
  0.103948685E+03  0.688426223E-01
  0.292101553E+02  0.232184443E+00
  0.928666296E+01  0.467941348E+00
  0.316392696E+01  0.362311985E+00
   s   3
  0.786827235E+01 -0.119332420E+00
  0.188128854E+01 -0.160854152E+00
  0.544249258E+00  0.114345644E+01
   s   1
  0.168714478E+00  0.100000000E+01
   p   3
  0.786827235E+01  0.689990666E-01
  0.188128854E+01  0.316423961E+00
  0.544249258E+00  0.744308291E+00
   p   1
  0.168714478E+00  0.100000000E+01
   d   1
  0.800000000E+00  0.100000000E+01
 
   3
   s   6
  0.417351146E+04  0.183477216E-02
  0.627457911E+03  0.139946270E-01
  0.142902093E+03  0.685865518E-01
  0.402343293E+02  0.232240873E+00
  0.128202129E+02  0.469069948E+00
  0.439043701E+01  0.360455199E+00
   s   3
  0.116263619E+02 -0.114961182E+00
  0.271627981E+01 -0.169117479E+00
  0.772218397E+00  0.114585195E+01
   s   1
  0.212031497E+00  0.100000000E+01
   p   3
  0.116263619E+02  0.675797439E-01
  0.271627981E+01  0.323907296E+00
  0.772218397E+00  0.740895140E+00
   p   1
  0.212031497E+00  0.100000000E+01
   d   1
  0.800000000E+00  0.100000000E+01
 
   4
   s   6
  0.304752488E+04  0.183473713E-02
  0.457369518E+03  0.140373228E-01
  0.103948685E+03  0.688426223E-01
  0.292101553E+02  0.232184443E+00
  0.928666296E+01  0.467941348E+00
  0.316392696E+01  0.362311985E+00
   s   3
  0.786827235E+01 -0.119332420E+00
  0.188128854E+01 -0.160854152E+00
  0.544249258E+00  0.114345644E+01
   s   1
  0.168714478E+00  0.100000000E+01
   p   3
  0.786827235E+01  0.689990666E-01
  0.188128854E+01  0.316423961E+00
  0.544249258E+00  0.744308291E+00
   p   1
  0.168714478E+00  0.100000000E+01
   d   1
  0.800000000E+00  0.100000000E+01
 
   5
   s   6
  0.304752488E+04  0.183473713E-02
  0.457369518E+03  0.140373228E-01
  0.103948685E+03  0.688426223E-01
  0.292101553E+02  0.232184443E+00
  0.928666296E+01  0.467941348E+00
  0.316392696E+01  0.362311985E+00
   s   3
  0.786827235E+01 -0.119332420E+00
  0.188128854E+01 -0.160854152E+00
  0.544249258E+00  0.114345644E+01
   s   1
  0.168714478E+00  0.100000000E+01
   p   3
  0.786827235E+01  0.689990666E-01
  0.188128854E+01  0.316423961E+00
  0.544249258E+00  0.744308291E+00
   p   1
  0.168714478E+00  0.100000000E+01
   d   1
  0.800000000E+00  0.100000000E+01
 
   6
   s   6
  0.304752488E+04  0.183473713E-02
  0.457369518E+03  0.140373228E-01
  0.103948685E+03  0.688426223E-01
  0.292101553E+02  0.232184443E+00
  0.928666296E+01  0.467941348E+00
  0.316392696E+01  0.362311985E+00
   s   3
  0.786827235E+01 -0.119332420E+00
  0.188128854E+01 -0.160854152E+00
  0.544249258E+00  0.114345644E+01
   s   1
  0.168714478E+00  0.100000000E+01
   p   3
  0.786827235E+01  0.689990666E-01
  0.188128854E+01  0.316423961E+00
  0.544249258E+00  0.744308291E+00
   p   1
  0.168714478E+00  0.100000000E+01
   d   1
  0.800000000E+00  0.100000000E+01
 
   7
   s   6
  0.548467166E+04  0.183107443E-02
  0.825234946E+03  0.139501722E-01
  0.188046958E+03  0.684450781E-01
  0.529645000E+02  0.232714336E+00
  0.168975704E+02  0.470192898E+00
  0.579963534E+01  0.358520853E+00
   s   3
  0.155396162E+02 -0.110777550E+00
  0.359993359E+01 -0.148026263E+00
  0.101376175E+01  0.113076702E+01
   s   1
  0.270005823E+00  0.100000000E+01
   p   3
  0.155396162E+02  0.708742682E-01
  0.359993359E+01  0.339752839E+00
  0.101376175E+01  0.727158577E+00
   p   1
  0.270005823E+00  0.100000000E+01
   d   1
  0.800000000E+00  0.100000000E+01
 
   8
   s   6
  0.548467166E+04  0.183107443E-02
  0.825234946E+03  0.139501722E-01
  0.188046958E+03  0.684450781E-01
  0.529645000E+02  0.232714336E+00
  0.168975704E+02  0.470192898E+00
  0.579963534E+01  0.358520853E+00
   s   3
  0.155396162E+02 -0.110777550E+00
  0.359993359E+01 -0.148026263E+00
  0.101376175E+01  0.113076702E+01
   s   1
  0.270005823E+00  0.100000000E+01
   p   3
  0.155396162E+02  0.708742682E-01
  0.359993359E+01  0.339752839E+00
  0.101376175E+01  0.727158577E+00
   p   1
  0.270005823E+00  0.100000000E+01
   d   1
  0.800000000E+00  0.100000000E+01
 
   9
   s   3
  0.187311370E+02  0.334946043E-01
  0.282539437E+01  0.234726954E+00
  0.640121692E+00  0.813757326E+00
   s   1
  0.161277759E+00  0.100000000E+01
   p   1
  0.110000000E+01  0.100000000E+01
 
  10
   s   3
  0.187311370E+02  0.334946043E-01
  0.282539437E+01  0.234726954E+00
  0.640121692E+00  0.813757326E+00
   s   1
  0.161277759E+00  0.100000000E+01
   p   1
  0.110000000E+01  0.100000000E+01
 
  11
   s   3
  0.187311370E+02  0.334946043E-01
  0.282539437E+01  0.234726954E+00
  0.640121692E+00  0.813757326E+00
   s   1
  0.161277759E+00  0.100000000E+01
   p   1
  0.110000000E+01  0.100000000E+01
 
  12
   s   6
  0.304752488E+04  0.183473713E-02
  0.457369518E+03  0.140373228E-01
  0.103948685E+03  0.688426223E-01
  0.292101553E+02  0.232184443E+00
  0.928666296E+01  0.467941348E+00
  0.316392696E+01  0.362311985E+00
   s   3
  0.786827235E+01 -0.119332420E+00
  0.188128854E+01 -0.160854152E+00
  0.544249258E+00  0.114345644E+01
   s   1
  0.168714478E+00  0.100000000E+01
   p   3
  0.786827235E+01  0.689990666E-01
  0.188128854E+01  0.316423961E+00
  0.544249258E+00  0.744308291E+00
   p   1
  0.168714478E+00  0.100000000E+01
   d   1
  0.800000000E+00  0.100000000E+01
 
  13
   s   3
  0.187311370E+02  0.334946043E-01
  0.282539437E+01  0.234726954E+00
  0.640121692E+00  0.813757326E+00
   s   1
  0.161277759E+00  0.100000000E+01
   p   1
  0.110000000E+01  0.100000000E+01
 
  14
   s   3
  0.187311370E+02  0.334946043E-01
  0.282539437E+01  0.234726954E+00
  0.640121692E+00  0.813757326E+00
   s   1
  0.161277759E+00  0.100000000E+01
   p   1
  0.110000000E+01  0.100000000E+01
 
  15
   s   3
  0.187311370E+02  0.334946043E-01
  0.282539437E+01  0.234726954E+00
  0.640121692E+00  0.813757326E+00
   s   1
  0.161277759E+00  0.100000000E+01
   p   1
  0.110000000E+01  0.100000000E+01
 
[MO]
Sym=     1a  
Ene=   -20.5480
Spin= Alpha
Occup=    2.00000
   1        -0.00001188
   2        -0.00004917
   3         0.00029563
   4         0.00000154
   5        -0.00003158
   6        -0.00000427
   7         0.00008137
   8         0.00012514
   9         0.00001235
  10        -0.00001080
  11        -0.00000381
  12        -0.00005750
  13         0.00012470
  14         0.00001376
  15         0.00000160
  16        -0.00000602
  17         0.00053311
  18        -0.00071229
  19         0.00002769
  20        -0.00001944
  21        -0.00000403
  22         0.00035539
  23        -0.00022852
  24        -0.00004911
  25        -0.00064889
  26        -0.00026205
  27        -0.00005330
  28         0.00042910
  29         0.00009396
  30        -0.00005632
  31        -0.00001075
  32        -0.00004250
  33         0.00028435
  34         0.00002827
  35         0.00001150
  36         0.00000003
  37        -0.00011838
  38        -0.00013779
  39        -0.00001208
  40        -0.00009066
  41         0.00007678
  42        -0.00005143
  43         0.00008665
  44         0.00001384
  45         0.00001527
  46         0.00001181
  47         0.00004875
  48        -0.00022407
  49        -0.00002507
  50         0.00001345
  51         0.00000312
  52         0.00033244
  53         0.00032666
  54         0.00002582
  55         0.00002689
  56         0.00002283
  57         0.00002232
  58        -0.00002890
  59        -0.00000416
  60         0.00000167
  61        -0.00000380
  62        -0.00002668
  63         0.00058831
  64        -0.00000517
  65         0.00000916
  66         0.00000149
  67        -0.00026937
  68         0.00015268
  69         0.00003463
  70         0.00000725
  71        -0.00000331
  72        -0.00000152
  73        -0.00001508
  74        -0.00000256
  75         0.00000056
  76         0.00000686
  77         0.00004224
  78        -0.00039960
  79        -0.00002080
  80         0.00001797
  81         0.00000349
  82        -0.00011483
  83        -0.00031432
  84        -0.00003570
  85         0.00003783
  86        -0.00002595
  87         0.00001525
  88        -0.00001130
  89        -0.00000284
  90        -0.00000581
  91         0.99469198
  92         0.02100192
  93         0.00450021
  94         0.00138532
  95        -0.00085157
  96        -0.00018620
  97        -0.00002017
  98         0.00001505
  99         0.00000305
 100        -0.00368864
 101        -0.00383540
 102        -0.00406915
 103        -0.00016501
 104        -0.00004556
 105         0.00004572
 106        -0.00001462
 107         0.00005893
 108        -0.00038132
 109        -0.00000562
 110        -0.00000233
 111        -0.00000001
 112         0.00008320
 113         0.00003130
 114        -0.00000027
 115         0.00003235
 116         0.00003716
 117         0.00003644
 118        -0.00000228
 119        -0.00000005
 120         0.00000024
 121        -0.00000504
 122        -0.00010206
 123         0.00000598
 124         0.00000860
 125         0.00000083
 126        -0.00002248
 127        -0.00002110
 128        -0.00001317
 129         0.00004127
 130         0.00000617
 131        -0.00002690
 132        -0.00001635
 133        -0.00004154
 134        -0.00000764
 135         0.00000119
 136         0.00000102
 137         0.00000588
 138         0.00005788
 139         0.00000015
 140         0.00000064
 141         0.00000008
 142        -0.00001182
 143         0.00000488
 144         0.00000125
 145        -0.00000225
 146         0.00000137
 147         0.00000192
 148         0.00000399
 149         0.00000079
 150        -0.00000031
 151         0.00000144
 152        -0.00000444
 153        -0.00000043
 154         0.00000070
 155        -0.00000096
 156         0.00000145
 157        -0.00000443
 158        -0.00000031
 159         0.00000042
 160         0.00000115
 161        -0.00000185
 162         0.00000369
 163        -0.00000182
 164        -0.00000001
 165         0.00000010
Sym=     2a  
Ene=   -20.5470
Spin= Alpha
Occup=    2.00000
   1        -0.00000106
   2        -0.00000319
   3         0.00015586
   4         0.00000369
   5         0.00000452
   6         0.00000041
   7        -0.00000636
   8         0.00006742
   9         0.00000930
  10        -0.00000319
  11        -0.00000874
  12         0.00000440
  13         0.00001492
  14         0.00000247
  15        -0.00000287
  16         0.00000937
  17         0.00003642
  18         0.00001329
  19         0.00002719
  20         0.00001375
  21         0.00000039
  22        -0.00016677
  23         0.00026296
  24         0.00004380
  25         0.00002941
  26         0.00002289
  27         0.00001684
  28         0.00002838
  29         0.00000303
  30        -0.00000060
  31        -0.00001083
  32        -0.00003860
  33         0.00021238
  34        -0.00004431
  35         0.00001646
  36         0.00000454
  37         0.00021885
  38        -0.00004896
  39        -0.00001813
  40        -0.00009951
  41         0.00006006
  42        -0.00005205
  43        -0.00005554
  44        -0.00000464
  45         0.00002055
  46        -0.00000708
  47         0.00050620
  48        -0.00048297
  49        -0.00002064
  50        -0.00000138
  51         0.00000092
  52        -0.00038756
  53        -0.00050500
  54        -0.00004657
  55        -0.00060192
  56        -0.00025524
  57        -0.00005086
  58        -0.00038517
  59        -0.00001741
  60        -0.00001100
  61        -0.00000111
  62        -0.00000427
  63        -0.00014624
  64        -0.00001890
  65        -0.00001152
  66        -0.00000052
  67         0.00011602
  68        -0.00007905
  69        -0.00001671
  70        -0.00000950
  71         0.00000411
  72        -0.00001713
  73        -0.00008875
  74        -0.00001237
  75         0.00000821
  76         0.00000148
  77         0.00001986
  78         0.00003912
  79         0.00001870
  80         0.00000609
  81        -0.00000018
  82        -0.00000466
  83         0.00000224
  84         0.00000055
  85         0.00003279
  86        -0.00002916
  87         0.00000164
  88        -0.00000687
  89        -0.00000280
  90        -0.00000443
  91         0.00003869
  92         0.00005161
  93        -0.00031245
  94         0.00000497
  95        -0.00000240
  96        -0.00000058
  97        -0.00007885
  98         0.00002432
  99         0.00000737
 100         0.00002582
 101         0.00003100
 102         0.00003190
 103         0.00000357
 104         0.00000085
 105        -0.00000034
 106         0.99469305
 107         0.02095006
 108         0.00458373
 109        -0.00134514
 110        -0.00080149
 111        -0.00003515
 112         0.00001077
 113         0.00003090
 114         0.00000353
 115        -0.00371086
 116        -0.00383637
 117        -0.00411167
 118         0.00014471
 119        -0.00000558
 120         0.00003526
 121         0.00000795
 122         0.00000143
 123         0.00000026
 124         0.00001034
 125         0.00000136
 126        -0.00002743
 127        -0.00003573
 128         0.00000412
 129         0.00003466
 130         0.00000438
 131        -0.00000811
 132        -0.00000374
 133        -0.00000228
 134        -0.00000391
 135        -0.00000040
 136         0.00000304
 137         0.00001682
 138        -0.00004970
 139         0.00001609
 140         0.00001535
 141         0.00000118
 142         0.00002262
 143        -0.00013724
 144        -0.00001928
 145        -0.00001732
 146         0.00001244
 147         0.00000602
 148         0.00000946
 149         0.00000269
 150         0.00000047
 151         0.00002308
 152        -0.00001964
 153         0.00000291
 154         0.00001068
 155         0.00000074
 156         0.00002311
 157        -0.00001986
 158         0.00000298
 159         0.00001053
 160         0.00000178
 161        -0.00001455
 162        -0.00007644
 163        -0.00000425
 164        -0.00000806
 165        -0.00000085
Sym=     3a  
Ene=   -15.6430
Spin= Alpha
Occup=    2.00000
   1         0.99497891
   2         0.02550813
   3        -0.00472578
   4         0.00017448
   5         0.00005338
   6        -0.00000162
   7        -0.00134911
   8        -0.00086380
   9        -0.00004399
  10        -0.00332554
  11        -0.00339779
  12        -0.00330090
  13         0.00004291
  14         0.00000730
  15        -0.00001753
  16         0.00001212
  17         0.00019051
  18         0.00169461
  19         0.00002713
  20        -0.00025992
  21        -0.00003599
  22         0.00084608
  23        -0.00188892
  24        -0.00029580
  25        -0.00005388
  26        -0.00012872
  27        -0.00006928
  28        -0.00003341
  29        -0.00000534
  30        -0.00000746
  31        -0.00073821
  32         0.00001161
  33        -0.00090551
  34         0.00005327
  35         0.00000588
  36        -0.00000202
  37        -0.00032928
  38         0.00071950
  39         0.00011305
  40         0.00006235
  41         0.00004900
  42        -0.00000220
  43        -0.00001405
  44        -0.00000587
  45         0.00000879
  46        -0.00000593
  47        -0.00004378
  48         0.00142305
  49        -0.00003045
  50         0.00000283
  51         0.00000200
  52        -0.00070826
  53        -0.00067295
  54        -0.00005191
  55         0.00000649
  56         0.00002133
  57        -0.00001216
  58         0.00000203
  59        -0.00000092
  60         0.00000514
  61         0.00002600
  62         0.00013274
  63        -0.00205197
  64         0.00001416
  65         0.00003978
  66         0.00000456
  67         0.00128199
  68        -0.00102168
  69        -0.00020397
  70        -0.00002834
  71         0.00003404
  72         0.00002609
  73         0.00001015
  74         0.00000470
  75         0.00000063
  76         0.00001098
  77         0.00016311
  78         0.00274951
  79        -0.00018258
  80         0.00009881
  81         0.00002277
  82        -0.00038109
  83         0.00181402
  84         0.00026125
  85        -0.00013186
  86        -0.00002271
  87        -0.00008803
  88         0.00005527
  89         0.00000997
  90         0.00000713
  91        -0.00002963
  92        -0.00016713
  93         0.00105271
  94        -0.00003118
  95         0.00000671
  96         0.00000253
  97         0.00032965
  98         0.00017402
  99         0.00000579
 100        -0.00003764
 101        -0.00015169
 102        -0.00012242
 103         0.00004032
 104         0.00000026
 105        -0.00000674
 106        -0.00001510
 107        -0.00006422
 108         0.00043571
 109         0.00001124
 110        -0.00000376
 111        -0.00000110
 112        -0.00008205
 113         0.00001761
 114         0.00000671
 115        -0.00003584
 116        -0.00004897
 117        -0.00004428
 118        -0.00001068
 119        -0.00000194
 120        -0.00000014
 121         0.00000636
 122         0.00042088
 123         0.00005220
 124        -0.00003626
 125        -0.00000757
 126        -0.00009387
 127         0.00000210
 128         0.00000462
 129        -0.00000010
 130        -0.00000028
 131         0.00012910
 132        -0.00002077
 133        -0.00010392
 134        -0.00006337
 135        -0.00000288
 136        -0.00000645
 137        -0.00000837
 138        -0.00050786
 139         0.00003108
 140        -0.00000775
 141        -0.00000269
 142         0.00010962
 143        -0.00005332
 144        -0.00001281
 145        -0.00001734
 146        -0.00001237
 147        -0.00002613
 148        -0.00001055
 149        -0.00000197
 150         0.00000274
 151         0.00000943
 152         0.00001283
 153         0.00000478
 154        -0.00000646
 155         0.00000806
 156         0.00000942
 157         0.00001280
 158         0.00000382
 159        -0.00000407
 160        -0.00000992
 161        -0.00000536
 162         0.00006396
 163         0.00000277
 164         0.00000730
 165         0.00000081
Sym=     4a  
Ene=   -15.6290
Spin= Alpha
Occup=    2.00000
   1         0.00077659
   2         0.00004038
   3        -0.00081472
   4         0.00001662
   5        -0.00005350
   6        -0.00000801
   7        -0.00078170
   8         0.00000364
   9         0.00004188
  10         0.00005523
  11         0.00003986
  12        -0.00001264
  13        -0.00001529
  14        -0.00000627
  15         0.00000907
  16         0.00000850
  17         0.00020304
  18         0.00166684
  19         0.00023174
  20         0.00007929
  21        -0.00000170
  22         0.00212696
  23         0.00008883
  24        -0.00010066
  25        -0.00013956
  26        -0.00010522
  27        -0.00007309
  28        -0.00008072
  29        -0.00000671
  30        -0.00000065
  31         0.99499519
  32         0.02553299
  33        -0.00526164
  34        -0.00013292
  35        -0.00017194
  36        -0.00001638
  37         0.00004843
  38         0.00156982
  39         0.00020680
  40        -0.00338229
  41        -0.00329219
  42        -0.00327842
  43         0.00002411
  44         0.00000961
  45        -0.00000358
  46        -0.00000630
  47         0.00009727
  48         0.00203495
  49        -0.00020770
  50         0.00008614
  51         0.00002248
  52        -0.00260999
  53        -0.00013514
  54         0.00012029
  55        -0.00008642
  56        -0.00009276
  57        -0.00009708
  58         0.00003153
  59         0.00000358
  60        -0.00000106
  61         0.00001711
  62         0.00007914
  63        -0.00159923
  64        -0.00003653
  65        -0.00004000
  66        -0.00000340
  67         0.00162539
  68        -0.00032119
  69        -0.00012881
  70        -0.00000260
  71        -0.00000274
  72         0.00001069
  73         0.00003028
  74         0.00000490
  75        -0.00000377
  76         0.00000298
  77        -0.00001100
  78         0.00173368
  79        -0.00000471
  80         0.00002396
  81         0.00000343
  82         0.00030300
  83         0.00065861
  84         0.00007127
  85         0.00003457
  86         0.00002049
  87        -0.00000028
  88         0.00001303
  89        -0.00000042
  90         0.00000252
  91        -0.00003179
  92        -0.00017661
  93         0.00110987
  94        -0.00002113
  95         0.00002364
  96         0.00000425
  97         0.00000362
  98        -0.00038598
  99        -0.00005140
 100        -0.00016586
 101        -0.00003358
 102        -0.00012780
 103        -0.00003477
 104        -0.00000242
 105         0.00001659
 106        -0.00003963
 107        -0.00021539
 108         0.00141271
 109         0.00002473
 110         0.00001718
 111         0.00000096
 112        -0.00007436
 113        -0.00039677
 114        -0.00004873
 115        -0.00017405
 116        -0.00006677
 117        -0.00014314
 118         0.00003312
 119         0.00000624
 120         0.00001009
 121        -0.00001057
 122         0.00010710
 123        -0.00001182
 124        -0.00000994
 125        -0.00000068
 126         0.00015740
 127         0.00002268
 128         0.00000728
 129         0.00011362
 130         0.00001464
 131        -0.00009293
 132        -0.00000724
 133        -0.00000051
 134        -0.00000240
 135        -0.00000028
 136        -0.00001395
 137        -0.00004283
 138        -0.00041754
 139         0.00002133
 140        -0.00004704
 141        -0.00000737
 142         0.00014557
 143         0.00006248
 144         0.00000050
 145        -0.00001715
 146        -0.00003420
 147        -0.00003416
 148        -0.00000005
 149        -0.00000104
 150         0.00000001
 151        -0.00001614
 152        -0.00000328
 153         0.00000336
 154        -0.00001254
 155         0.00000314
 156        -0.00001616
 157        -0.00000312
 158         0.00000283
 159        -0.00001121
 160        -0.00000662
 161         0.00002435
 162         0.00008467
 163         0.00000699
 164         0.00001033
 165         0.00000099
Sym=     5a  
Ene=   -11.4190
Spin= Alpha
Occup=    2.00000
   1        -0.00023807
   2         0.00037186
   3        -0.00022170
   4         0.00003368
   5         0.00011320
   6         0.00001325
   7        -0.00020217
   8        -0.00129192
   9        -0.00016110
  10        -0.00028352
  11        -0.00070468
  12         0.00011373
  13         0.00000448
  14         0.00002582
  15        -0.00012842
  16         0.99587022
  17         0.02583038
  18        -0.00231421
  19         0.00061589
  20        -0.00037676
  21        -0.00008263
  22        -0.00336962
  23         0.00217339
  24         0.00046672
  25        -0.00057031
  26        -0.00090481
  27        -0.00226276
  28        -0.00032924
  29        -0.00014890
  30         0.00023097
  31        -0.00025146
  32         0.00030155
  33         0.00011080
  34        -0.00010383
  35        -0.00008507
  36        -0.00000578
  37         0.00157098
  38         0.00067542
  39         0.00000690
  40        -0.00061772
  41        -0.00038039
  42         0.00007903
  43        -0.00023492
  44         0.00001165
  45        -0.00005924
  46        -0.00045422
  47        -0.00061943
  48         0.00186481
  49         0.00012925
  50        -0.00001229
  51        -0.00000844
  52        -0.00338792
  53        -0.00389998
  54        -0.00033931
  55        -0.00006366
  56        -0.00008531
  57        -0.00021996
  58        -0.00003150
  59        -0.00001391
  60         0.00002285
  61         0.00002069
  62         0.00037154
  63        -0.00689141
  64         0.00004486
  65        -0.00002652
  66        -0.00000587
  67         0.00366105
  68        -0.00199446
  69        -0.00045985
  70        -0.00010874
  71        -0.00004447
  72         0.00006433
  73         0.00004276
  74         0.00001652
  75        -0.00001944
  76        -0.00020446
  77        -0.00055309
  78         0.00405438
  79         0.00005502
  80        -0.00015716
  81        -0.00002387
  82         0.00174407
  83         0.00397597
  84         0.00043621
  85         0.00007756
  86         0.00010295
  87        -0.00019419
  88        -0.00004585
  89        -0.00002310
  90         0.00004898
  91        -0.00018792
  92         0.00093328
  93        -0.00524381
  94         0.00028050
  95        -0.00016919
  96        -0.00003727
  97        -0.00191953
  98         0.00116240
  99         0.00025560
 100         0.00031162
 101         0.00037534
 102         0.00055547
 103         0.00008168
 104         0.00002597
 105        -0.00003269
 106        -0.00012699
 107        -0.00056524
 108         0.00405893
 109         0.00000517
 110        -0.00000290
 111        -0.00000070
 112        -0.00087978
 113        -0.00025765
 114         0.00001266
 115        -0.00029579
 116        -0.00038790
 117        -0.00030892
 118         0.00002881
 119         0.00000311
 120        -0.00001394
 121         0.00022040
 122         0.00150625
 123        -0.00004934
 124         0.00000118
 125         0.00000280
 126         0.00000377
 127         0.00012942
 128        -0.00012047
 129        -0.00019532
 130        -0.00001959
 131         0.00003560
 132        -0.00000420
 133         0.00011097
 134         0.00019304
 135         0.00001978
 136        -0.00000601
 137        -0.00002239
 138        -0.00113959
 139         0.00002294
 140        -0.00002157
 141        -0.00000412
 142         0.00029544
 143        -0.00022132
 144        -0.00004467
 145         0.00001048
 146        -0.00001066
 147        -0.00001789
 148        -0.00002382
 149        -0.00000494
 150         0.00000247
 151        -0.00000298
 152         0.00007289
 153         0.00000420
 154        -0.00000758
 155         0.00001217
 156        -0.00000307
 157         0.00007276
 158         0.00000280
 159        -0.00000406
 160        -0.00001410
 161         0.00003151
 162        -0.00009317
 163         0.00001916
 164        -0.00000531
 165        -0.00000175
Sym=     6a  
Ene=   -11.3800
Spin= Alpha
Occup=    2.00000
   1         0.00003697
   2         0.00016338
   3        -0.00204822
   4        -0.00003861
   5         0.00002878
   6         0.00000584
   7         0.00006435
   8        -0.00156674
   9        -0.00021161
  10         0.00004009
  11         0.00002689
  12         0.00005719
  13        -0.00005731
  14        -0.00000659
  15        -0.00000160
  16         0.00023304
  17        -0.00049365
  18        -0.00090906
  19        -0.00018048
  20        -0.00007699
  21        -0.00000066
  22         0.00127211
  23        -0.00396722
  24        -0.00059514
  25        -0.00010109
  26        -0.00008838
  27        -0.00020698
  28         0.00005171
  29         0.00000026
  30         0.00001580
  31        -0.00025871
  32         0.00026295
  33         0.00126582
  34         0.00022510
  35        -0.00004533
  36        -0.00001793
  37        -0.00353556
  38        -0.00026085
  39         0.00015263
  40        -0.00077589
  41        -0.00038739
  42         0.00004366
  43         0.00029993
  44         0.00009102
  45        -0.00008420
  46         0.99591770
  47         0.02648928
  48        -0.00727314
  49        -0.00056688
  50         0.00054735
  51         0.00010288
  52         0.00375985
  53         0.00715393
  54         0.00075220
  55        -0.00055603
  56        -0.00106530
  57        -0.00215592
  58         0.00028753
  59        -0.00006109
  60         0.00015538
  61         0.00314736
  62         0.00002360
  63         0.00575876
  64         0.00009544
  65        -0.00012829
  66        -0.00002214
  67        -0.00169708
  68         0.00445725
  69         0.00068293
  70        -0.00029319
  71        -0.00050133
  72        -0.00017934