[Molden Format]
[N_Atoms]
                    15
[Atoms] (AU)
N1          1      7          -2.26361295     -1.80425317     -0.19278941
C2          2      6          -2.34156491      0.78911924      0.15628445
N3          3      7           0.04984317      1.85767091      0.17210936
C4          4      6           2.39798395      0.66181958     -0.11151457
C5          5      6           2.24507909     -2.07465843     -0.46744332
C6          6      6          -0.06531349     -3.17380825     -0.49091938
O7          7      8          -4.30393188      1.98623181      0.41887497
O8          8      8           4.37131099      1.88775127     -0.05325324
H9          9      1          -0.31864568     -5.18622392     -0.74521571
H10        10      1           0.09739049      3.75308006      0.42109187
H11        11      1          -3.96381183     -2.66165408     -0.21657819
C12        12      6           4.66891759     -3.49308988     -0.78439616
H13        13      1           5.70473675     -2.79266365     -2.41926684
H14        14      1           5.87951525     -3.22657360      0.85867468
H15        15      1           4.31755800     -5.50502040     -1.03203276
[Charge] (Mulliken)
  0.000000000000000E+000
  0.000000000000000E+000
  0.000000000000000E+000
  0.000000000000000E+000
  0.000000000000000E+000
  0.000000000000000E+000
  0.000000000000000E+000
  0.000000000000000E+000
  0.000000000000000E+000
  0.000000000000000E+000
  0.000000000000000E+000
  0.000000000000000E+000
  0.000000000000000E+000
  0.000000000000000E+000
  0.000000000000000E+000
[GTO] (AU)
   1
   s   6
  0.417351146E+04  0.183477216E-02
  0.627457911E+03  0.139946270E-01
  0.142902093E+03  0.685865518E-01
  0.402343293E+02  0.232240873E+00
  0.128202129E+02  0.469069948E+00
  0.439043701E+01  0.360455199E+00
   s   3
  0.116263619E+02 -0.114961182E+00
  0.271627981E+01 -0.169117479E+00
  0.772218397E+00  0.114585195E+01
   s   1
  0.212031497E+00  0.100000000E+01
   p   3
  0.116263619E+02  0.675797439E-01
  0.271627981E+01  0.323907296E+00
  0.772218397E+00  0.740895140E+00
   p   1
  0.212031497E+00  0.100000000E+01
   d   1
  0.800000000E+00  0.100000000E+01
 
   2
   s   6
  0.304752488E+04  0.183473713E-02
  0.457369518E+03  0.140373228E-01
  0.103948685E+03  0.688426223E-01
  0.292101553E+02  0.232184443E+00
  0.928666296E+01  0.467941348E+00
  0.316392696E+01  0.362311985E+00
   s   3
  0.786827235E+01 -0.119332420E+00
  0.188128854E+01 -0.160854152E+00
  0.544249258E+00  0.114345644E+01
   s   1
  0.168714478E+00  0.100000000E+01
   p   3
  0.786827235E+01  0.689990666E-01
  0.188128854E+01  0.316423961E+00
  0.544249258E+00  0.744308291E+00
   p   1
  0.168714478E+00  0.100000000E+01
   d   1
  0.800000000E+00  0.100000000E+01
 
   3
   s   6
  0.417351146E+04  0.183477216E-02
  0.627457911E+03  0.139946270E-01
  0.142902093E+03  0.685865518E-01
  0.402343293E+02  0.232240873E+00
  0.128202129E+02  0.469069948E+00
  0.439043701E+01  0.360455199E+00
   s   3
  0.116263619E+02 -0.114961182E+00
  0.271627981E+01 -0.169117479E+00
  0.772218397E+00  0.114585195E+01
   s   1
  0.212031497E+00  0.100000000E+01
   p   3
  0.116263619E+02  0.675797439E-01
  0.271627981E+01  0.323907296E+00
  0.772218397E+00  0.740895140E+00
   p   1
  0.212031497E+00  0.100000000E+01
   d   1
  0.800000000E+00  0.100000000E+01
 
   4
   s   6
  0.304752488E+04  0.183473713E-02
  0.457369518E+03  0.140373228E-01
  0.103948685E+03  0.688426223E-01
  0.292101553E+02  0.232184443E+00
  0.928666296E+01  0.467941348E+00
  0.316392696E+01  0.362311985E+00
   s   3
  0.786827235E+01 -0.119332420E+00
  0.188128854E+01 -0.160854152E+00
  0.544249258E+00  0.114345644E+01
   s   1
  0.168714478E+00  0.100000000E+01
   p   3
  0.786827235E+01  0.689990666E-01
  0.188128854E+01  0.316423961E+00
  0.544249258E+00  0.744308291E+00
   p   1
  0.168714478E+00  0.100000000E+01
   d   1
  0.800000000E+00  0.100000000E+01
 
   5
   s   6
  0.304752488E+04  0.183473713E-02
  0.457369518E+03  0.140373228E-01
  0.103948685E+03  0.688426223E-01
  0.292101553E+02  0.232184443E+00
  0.928666296E+01  0.467941348E+00
  0.316392696E+01  0.362311985E+00
   s   3
  0.786827235E+01 -0.119332420E+00
  0.188128854E+01 -0.160854152E+00
  0.544249258E+00  0.114345644E+01
   s   1
  0.168714478E+00  0.100000000E+01
   p   3
  0.786827235E+01  0.689990666E-01
  0.188128854E+01  0.316423961E+00
  0.544249258E+00  0.744308291E+00
   p   1
  0.168714478E+00  0.100000000E+01
   d   1
  0.800000000E+00  0.100000000E+01
 
   6
   s   6
  0.304752488E+04  0.183473713E-02
  0.457369518E+03  0.140373228E-01
  0.103948685E+03  0.688426223E-01
  0.292101553E+02  0.232184443E+00
  0.928666296E+01  0.467941348E+00
  0.316392696E+01  0.362311985E+00
   s   3
  0.786827235E+01 -0.119332420E+00
  0.188128854E+01 -0.160854152E+00
  0.544249258E+00  0.114345644E+01
   s   1
  0.168714478E+00  0.100000000E+01
   p   3
  0.786827235E+01  0.689990666E-01
  0.188128854E+01  0.316423961E+00
  0.544249258E+00  0.744308291E+00
   p   1
  0.168714478E+00  0.100000000E+01
   d   1
  0.800000000E+00  0.100000000E+01
 
   7
   s   6
  0.548467166E+04  0.183107443E-02
  0.825234946E+03  0.139501722E-01
  0.188046958E+03  0.684450781E-01
  0.529645000E+02  0.232714336E+00
  0.168975704E+02  0.470192898E+00
  0.579963534E+01  0.358520853E+00
   s   3
  0.155396162E+02 -0.110777550E+00
  0.359993359E+01 -0.148026263E+00
  0.101376175E+01  0.113076702E+01
   s   1
  0.270005823E+00  0.100000000E+01
   p   3
  0.155396162E+02  0.708742682E-01
  0.359993359E+01  0.339752839E+00
  0.101376175E+01  0.727158577E+00
   p   1
  0.270005823E+00  0.100000000E+01
   d   1
  0.800000000E+00  0.100000000E+01
 
   8
   s   6
  0.548467166E+04  0.183107443E-02
  0.825234946E+03  0.139501722E-01
  0.188046958E+03  0.684450781E-01
  0.529645000E+02  0.232714336E+00
  0.168975704E+02  0.470192898E+00
  0.579963534E+01  0.358520853E+00
   s   3
  0.155396162E+02 -0.110777550E+00
  0.359993359E+01 -0.148026263E+00
  0.101376175E+01  0.113076702E+01
   s   1
  0.270005823E+00  0.100000000E+01
   p   3
  0.155396162E+02  0.708742682E-01
  0.359993359E+01  0.339752839E+00
  0.101376175E+01  0.727158577E+00
   p   1
  0.270005823E+00  0.100000000E+01
   d   1
  0.800000000E+00  0.100000000E+01
 
   9
   s   3
  0.187311370E+02  0.334946043E-01
  0.282539437E+01  0.234726954E+00
  0.640121692E+00  0.813757326E+00
   s   1
  0.161277759E+00  0.100000000E+01
   p   1
  0.110000000E+01  0.100000000E+01
 
  10
   s   3
  0.187311370E+02  0.334946043E-01
  0.282539437E+01  0.234726954E+00
  0.640121692E+00  0.813757326E+00
   s   1
  0.161277759E+00  0.100000000E+01
   p   1
  0.110000000E+01  0.100000000E+01
 
  11
   s   3
  0.187311370E+02  0.334946043E-01
  0.282539437E+01  0.234726954E+00
  0.640121692E+00  0.813757326E+00
   s   1
  0.161277759E+00  0.100000000E+01
   p   1
  0.110000000E+01  0.100000000E+01
 
  12
   s   6
  0.304752488E+04  0.183473713E-02
  0.457369518E+03  0.140373228E-01
  0.103948685E+03  0.688426223E-01
  0.292101553E+02  0.232184443E+00
  0.928666296E+01  0.467941348E+00
  0.316392696E+01  0.362311985E+00
   s   3
  0.786827235E+01 -0.119332420E+00
  0.188128854E+01 -0.160854152E+00
  0.544249258E+00  0.114345644E+01
   s   1
  0.168714478E+00  0.100000000E+01
   p   3
  0.786827235E+01  0.689990666E-01
  0.188128854E+01  0.316423961E+00
  0.544249258E+00  0.744308291E+00
   p   1
  0.168714478E+00  0.100000000E+01
   d   1
  0.800000000E+00  0.100000000E+01
 
  13
   s   3
  0.187311370E+02  0.334946043E-01
  0.282539437E+01  0.234726954E+00
  0.640121692E+00  0.813757326E+00
   s   1
  0.161277759E+00  0.100000000E+01
   p   1
  0.110000000E+01  0.100000000E+01
 
  14
   s   3
  0.187311370E+02  0.334946043E-01
  0.282539437E+01  0.234726954E+00
  0.640121692E+00  0.813757326E+00
   s   1
  0.161277759E+00  0.100000000E+01
   p   1
  0.110000000E+01  0.100000000E+01
 
  15
   s   3
  0.187311370E+02  0.334946043E-01
  0.282539437E+01  0.234726954E+00
  0.640121692E+00  0.813757326E+00
   s   1
  0.161277759E+00  0.100000000E+01
   p   1
  0.110000000E+01  0.100000000E+01
 
[MO]
Sym=     1a  
Ene=   -20.6870
Spin= Alpha
Occup=    2.00000
   1        -0.00001840
   2         0.00004583
   3         0.00004846
   4        -0.00005246
   5         0.00009143
   6         0.00001493
   7        -0.00003044
   8         0.00005306
   9         0.00000866
  10         0.00000000
  11        -0.00000000
  12        -0.00000000
  13        -0.00000000
  14        -0.00000000
  15        -0.00000000
  16         0.00004944
  17         0.00072812
  18         0.00080960
  19        -0.00090763
  20         0.00055323
  21         0.00012139
  22        -0.00056681
  23         0.00034549
  24         0.00007581
  25         0.00000000
  26         0.00000000
  27        -0.00000000
  28         0.00000000
  29         0.00000000
  30         0.00000000
  31        -0.00002301
  32         0.00003381
  33         0.00003593
  34        -0.00012727
  35         0.00000540
  36         0.00000744
  37        -0.00007386
  38         0.00000313
  39         0.00000432
  40        -0.00000000
  41        -0.00000000
  42        -0.00000000
  43        -0.00000000
  44         0.00000000
  45         0.00000000
  46        -0.00002300
  47        -0.00015546
  48        -0.00017259
  49        -0.00019406
  50        -0.00011906
  51        -0.00000553
  52        -0.00012119
  53        -0.00007435
  54        -0.00000345
  55        -0.00000000
  56         0.00000000
  57        -0.00000000
  58        -0.00000000
  59         0.00000000
  60         0.00000000
  61         0.00000349
  62        -0.00001108
  63        -0.00001241
  64        -0.00001052
  65        -0.00002033
  66        -0.00000215
  67        -0.00000657
  68        -0.00001269
  69        -0.00000134
  70         0.00000000
  71        -0.00000000
  72        -0.00000000
  73         0.00000000
  74        -0.00000000
  75         0.00000000
  76        -0.00001250
  77        -0.00000078
  78        -0.00000060
  79        -0.00000193
  80         0.00000082
  81         0.00000021
  82        -0.00000121
  83         0.00000051
  84         0.00000013
  85        -0.00000000
  86        -0.00000000
  87        -0.00000000
  88         0.00000000
  89         0.00000000
  90        -0.00000000
  91         0.97367450
  92         0.01822601
  93        -0.00294359
  94         0.00001859
  95        -0.00001135
  96        -0.00000249
  97         0.00001259
  98        -0.00000769
  99        -0.00000169
 100         0.00000000
 101         0.00000000
 102         0.00000000
 103         0.00000000
 104         0.00000000
 105         0.00000000
 106        -0.20892571
 107        -0.00391115
 108         0.00063132
 109         0.00000434
 110         0.00000261
 111         0.00000012
 112         0.00000294
 113         0.00000176
 114         0.00000008
 115         0.00000000
 116         0.00000000
 117         0.00000000
 118        -0.00000000
 119        -0.00000000
 120        -0.00000000
 121        -0.00000022
 122        -0.00000024
 123        -0.00000000
 124         0.00000000
 125        -0.00000000
 126         0.00002168
 127         0.00002421
 128        -0.00000000
 129        -0.00000000
 130         0.00000000
 131         0.00002997
 132         0.00003347
 133         0.00000000
 134        -0.00000000
 135         0.00000000
 136        -0.00000094
 137        -0.00000263
 138        -0.00000291
 139         0.00000048
 140        -0.00000628
 141        -0.00000086
 142         0.00000030
 143        -0.00000392
 144        -0.00000054
 145         0.00000000
 146         0.00000000
 147         0.00000000
 148         0.00000000
 149        -0.00000000
 150        -0.00000000
 151        -0.00000218
 152        -0.00000243
 153         0.00000000
 154        -0.00000000
 155         0.00000000
 156        -0.00000218
 157        -0.00000244
 158        -0.00000000
 159         0.00000000
 160        -0.00000000
 161        -0.00000006
 162        -0.00000007
 163         0.00000000
 164         0.00000000
 165         0.00000000
Sym=     2a  
Ene=   -20.6870
Spin= Alpha
Occup=    2.00000
   1        -0.00001791
   2         0.00000797
   3         0.00000871
   4        -0.00001246
   5         0.00001906
   6         0.00000319
   7        -0.00000723
   8         0.00001106
   9         0.00000185
  10        -0.00000000
  11        -0.00000000
  12        -0.00000000
  13         0.00000000
  14         0.00000000
  15        -0.00000000
  16        -0.00000485
  17         0.00015530
  18         0.00017301
  19        -0.00019308
  20         0.00011962
  21         0.00002608
  22        -0.00012058
  23         0.00007470
  24         0.00001629
  25         0.00000000
  26         0.00000000
  27        -0.00000000
  28         0.00000000
  29         0.00000000
  30        -0.00000000
  31        -0.00001365
  32         0.00005726
  33         0.00006038
  34         0.00008738
  35         0.00000490
  36        -0.00000399
  37         0.00005071
  38         0.00000284
  39        -0.00000232
  40         0.00000000
  41         0.00000000
  42         0.00000000
  43        -0.00000000
  44        -0.00000000
  45        -0.00000000
  46         0.00003478
  47         0.00071911
  48         0.00079988
  49         0.00089874
  50         0.00055870
  51         0.00002658
  52         0.00056126
  53         0.00034891
  54         0.00001660
  55         0.00000000
  56         0.00000000
  57         0.00000000
  58        -0.00000000
  59         0.00000000
  60         0.00000000
  61        -0.00004050
  62         0.00004593
  63         0.00005200
  64         0.00005248
  65         0.00009261
  66         0.00000953
  67         0.00003277
  68         0.00005783
  69         0.00000595
  70         0.00000000
  71        -0.00000000
  72        -0.00000000
  73         0.00000000
  74         0.00000000
  75        -0.00000000
  76        -0.00002281
  77        -0.00000159
  78        -0.00000128
  79         0.00000113
  80         0.00000136
  81         0.00000012
  82         0.00000070
  83         0.00000085
  84         0.00000008
  85         0.00000000
  86         0.00000000
  87         0.00000000
  88        -0.00000000
  89        -0.00000000
  90        -0.00000000
  91         0.20892688
  92         0.00391041
  93        -0.00063205
  94         0.00000361
  95        -0.00000228
  96        -0.00000049
  97         0.00000245
  98        -0.00000154
  99        -0.00000033
 100        -0.00000000
 101        -0.00000000
 102        -0.00000000
 103         0.00000000
 104         0.00000000
 105        -0.00000000
 106         0.97367834
 107         0.01822535
 108        -0.00294430
 109        -0.00001831
 110        -0.00001143
 111        -0.00000055
 112        -0.00001240
 113        -0.00000774
 114        -0.00000037
 115        -0.00000000
 116        -0.00000000
 117        -0.00000000
 118         0.00000000
 119         0.00000000
 120        -0.00000000
 121        -0.00000053
 122        -0.00000060
 123        -0.00000000
 124         0.00000000
 125        -0.00000000
 126         0.00003671
 127         0.00004099
 128         0.00000000
 129         0.00000000
 130        -0.00000000
 131         0.00000620
 132         0.00000693
 133         0.00000000
 134         0.00000000
 135         0.00000000
 136         0.00000420
 137         0.00001180
 138         0.00001305
 139        -0.00000163
 140         0.00002890
 141         0.00000393
 142        -0.00000102
 143         0.00001805
 144         0.00000245
 145        -0.00000000
 146        -0.00000000
 147        -0.00000000
 148         0.00000000
 149         0.00000000
 150        -0.00000000
 151         0.00001003
 152         0.00001120
 153        -0.00000000
 154        -0.00000000
 155        -0.00000000
 156         0.00001006
 157         0.00001124
 158         0.00000000
 159        -0.00000000
 160        -0.00000000
 161         0.00000016
 162         0.00000018
 163        -0.00000000
 164         0.00000000
 165        -0.00000000
Sym=     3a  
Ene=   -15.6440
Spin= Alpha
Occup=    2.00000
   1         0.77492536
   2         0.01561983
   3         0.00157533
   4         0.00008034
   5         0.00011590
   6         0.00001118
   7         0.00004662
   8         0.00006726
   9         0.00000649
  10        -0.00000000
  11        -0.00000000
  12        -0.00000000
  13         0.00000000
  14         0.00000000
  15        -0.00000000
  16         0.00139207
  17         0.00135245
  18         0.00147596
  19         0.00082792
  20        -0.00071994
  21        -0.00013949
  22         0.00051704
  23        -0.00044960
  24        -0.00008711
  25        -0.00000000
  26        -0.00000000
  27        -0.00000000
  28         0.00000000
  29        -0.00000000
  30        -0.00000000
  31         0.62297778
  32         0.01258481
  33         0.00129554
  34        -0.00008754
  35        -0.00014800
  36        -0.00001507
  37        -0.00005080
  38        -0.00008589
  39        -0.00000875
  40         0.00000000
  41         0.00000000
  42         0.00000000
  43         0.00000000
  44        -0.00000000
  45        -0.00000000
  46         0.00061577
  47         0.00061220
  48         0.00066841
  49        -0.00080514
  50         0.00034923
  51         0.00008915
  52        -0.00050281
  53         0.00021809
  54         0.00005568
  55         0.00000000
  56         0.00000000
  57         0.00000000
  58        -0.00000000
  59         0.00000000
  60         0.00000000
  61         0.00002585
  62         0.00014287
  63         0.00015852
  64        -0.00022680
  65         0.00012200
  66         0.00002824
  67        -0.00014163
  68         0.00007619
  69         0.00001764
  70         0.00000000
  71        -0.00000000
  72        -0.00000000
  73         0.00000000
  74         0.00000000
  75        -0.00000000
  76         0.00086716
  77         0.00079444
  78         0.00086593
  79        -0.00091969
  80         0.00064237
  81         0.00013396
  82        -0.00057435
  83         0.00040116
  84         0.00008366
  85         0.00000000
  86         0.00000000
  87         0.00000000
  88        -0.00000000
  89        -0.00000000
  90         0.00000000
  91        -0.00004293
  92         0.00010481
  93         0.00010072
  94         0.00013269
  95        -0.00009606
  96        -0.00001977
  97         0.00008987
  98        -0.00006507
  99        -0.00001339
 100        -0.00000000
 101        -0.00000000
 102        -0.00000000
 103        -0.00000000
 104        -0.00000000
 105        -0.00000000
 106        -0.00001749
 107         0.00004890
 108         0.00004694
 109        -0.00009066
 110         0.00000182
 111         0.00000505
 112        -0.00006141
 113         0.00000123
 114         0.00000342
 115         0.00000000
 116         0.00000000
 117         0.00000000
 118        -0.00000000
 119         0.00000000
 120         0.00000000
 121         0.00012883
 122         0.00014385
 123         0.00000000
 124        -0.00000000
 125        -0.00000000
 126         0.00079942
 127         0.00089260
 128         0.00000000
 129         0.00000000
 130        -0.00000000
 131         0.00100066
 132         0.00111729
 133         0.00000000
 134         0.00000000
 135         0.00000000
 136        -0.00007326
 137        -0.00000305
 138        -0.00000183
 139        -0.00000368
 140         0.00000202
 141         0.00000046
 142        -0.00000230
 143         0.00000126
 144         0.00000029
 145        -0.00000000
 146        -0.00000000
 147        -0.00000000
 148         0.00000000
 149         0.00000000
 150        -0.00000000
 151        -0.00000118
 152        -0.00000131
 153        -0.00000000
 154         0.00000000
 155        -0.00000000
 156        -0.00000118
 157        -0.00000131
 158         0.00000000
 159        -0.00000000
 160        -0.00000000
 161        -0.00000118
 162        -0.00000132
 163         0.00000000
 164        -0.00000000
 165        -0.00000000
Sym=     4a  
Ene=   -15.6420
Spin= Alpha
Occup=    2.00000
   1        -0.62311714
   2        -0.01241811
   3        -0.00111787
   4         0.00008969
   5         0.00013749
   6         0.00001354
   7         0.00005205
   8         0.00007979
   9         0.00000786
  10         0.00000000
  11         0.00000000
  12         0.00000000
  13        -0.00000000
  14         0.00000000
  15        -0.00000000
  16         0.00013799
  17         0.00014458
  18         0.00015802
  19         0.00096054
  20         0.00130328
  21         0.00012262
  22         0.00059986
  23         0.00081390
  24         0.00007658
  25         0.00000000
  26         0.00000000
  27        -0.00000000
  28        -0.00000000
  29        -0.00000000
  30         0.00000000
  31         0.77507240
  32         0.01548001
  33         0.00142573
  34         0.00006843
  35         0.00011343
  36         0.00001146
  37         0.00003971
  38         0.00006583
  39         0.00000665
  40         0.00000000
  41        -0.00000000
  42        -0.00000000
  43        -0.00000000
  44        -0.00000000
  45         0.00000000
  46         0.00067096
  47         0.00069748
  48         0.00076219
  49        -0.00088416
  50         0.00049673
  51         0.00011298
  52        -0.00055216
  53         0.00031021
  54         0.00007055
  55        -0.00000000
  56         0.00000000
  57         0.00000000
  58        -0.00000000
  59        -0.00000000
  60        -0.00000000
  61         0.00003407
  62         0.00001389
  63         0.00001473
  64         0.00005148
  65         0.00012411
  66         0.00001379
  67         0.00003215
  68         0.00007751
  69         0.00000861
  70        -0.00000000
  71        -0.00000000
  72         0.00000000
  73         0.00000000
  74        -0.00000000
  75        -0.00000000
  76        -0.00059590
  77        -0.00057131
  78        -0.00062332
  79         0.00074285
  80        -0.00038060
  81        -0.00008981
  82         0.00046391
  83        -0.00023768
  84        -0.00005609
  85         0.00000000
  86         0.00000000
  87        -0.00000000
  88        -0.00000000
  89        -0.00000000
  90        -0.00000000
  91         0.00000146
  92         0.00000965
  93         0.00000916
  94         0.00006755
  95         0.00007858
  96         0.00000688
  97         0.00004575
  98         0.00005322
  99         0.00000466
 100        -0.00000000
 101        -0.00000000
 102        -0.00000000
 103        -0.00000000
 104         0.00000000
 105        -0.00000000
 106        -0.00006402
 107         0.00006161
 108         0.00006002
 109        -0.00011134
 110         0.00000294
 111         0.00000630
 112        -0.00007542
 113         0.00000199
 114         0.00000427
 115        -0.00000000
 116        -0.00000000
 117         0.00000000
 118         0.00000000
 119         0.00000000
 120        -0.00000000
 121        -0.00010166
 122        -0.00011350
 123        -0.00000000
 124        -0.00000000
 125        -0.00000000
 126         0.00098410
 127         0.00109880
 128        -0.00000000
 129        -0.00000000
 130        -0.00000000
 131        -0.00079607
 132        -0.00088885
 133         0.00000000
 134         0.00000000
 135         0.00000000
 136        -0.00000425
 137        -0.00000005
 138         0.00000004
 139        -0.00000035
 140         0.00000093
 141         0.00000014
 142        -0.00000022
 143         0.00000058
 144         0.00000009
 145         0.00000000
 146         0.00000000
 147        -0.00000000
 148         0.00000000
 149         0.00000000
 150        -0.00000000
 151        -0.00000018
 152        -0.00000020
 153         0.00000000
 154        -0.00000000
 155         0.00000000
 156        -0.00000018
 157        -0.00000020
 158         0.00000000
 159         0.00000000
 160        -0.00000000
 161        -0.00000005
 162        -0.00000006
 163         0.00000000
 164        -0.00000000
 165        -0.00000000
Sym=     5a  
Ene=   -11.3530
Spin= Alpha
Occup=    2.00000
   1        -0.00185620
   2         0.00113362
   3         0.00122560
   4         0.00142453
   5        -0.00063857
   6        -0.00016013
   7         0.00082672
   8        -0.00037059
   9        -0.00009293
  10        -0.00000000
  11         0.00000000
  12        -0.00000000
  13        -0.00000000
  14        -0.00000000
  15        -0.00000000
  16         0.02804631
  17         0.00069605
  18         0.00017462
  19         0.00027261
  20        -0.00019560
  21        -0.00004043
  22         0.00017024
  23        -0.00012215
  24        -0.00002525
  25        -0.00000000
  26        -0.00000000
  27        -0.00000000
  28         0.00000000
  29        -0.00000000
  30        -0.00000000
  31        -0.00148394
  32         0.00089365
  33         0.00096655
  34         0.00093816
  35        -0.00075086
  36        -0.00014966
  37         0.00054446
  38        -0.00043576
  39        -0.00008685
  40         0.00000000
  41         0.00000000
  42         0.00000000
  43         0.00000000
  44        -0.00000000
  45        -0.00000000
  46         0.40171807
  47         0.00856102
  48         0.00093260
  49        -0.00014524
  50        -0.00163173
  51        -0.00020936
  52        -0.00009070
  53        -0.00101902
  54        -0.00013074
  55         0.00000000
  56        -0.00000000
  57         0.00000000
  58         0.00000000
  59         0.00000000
  60        -0.00000000
  61         0.68186900
  62         0.01453743
  63         0.00158977
  64        -0.00066098
  65        -0.00002596
  66         0.00003178
  67        -0.00041278
  68        -0.00001621
  69         0.00001985
  70         0.00000000
  71         0.00000000
  72        -0.00000000
  73         0.00000000
  74         0.00000000
  75        -0.00000000
  76         0.51931446
  77         0.01095760
  78         0.00108366
  79         0.00172607
  80         0.00088274
  81         0.00002573
  82         0.00107793
  83         0.00055127
  84         0.00001607
  85        -0.00000000
  86         0.00000000
  87         0.00000000
  88         0.00000000
  89        -0.00000000
  90        -0.00000000
  91         0.00001420
  92         0.00007555
  93         0.00007167
  94         0.00008597
  95        -0.00005244
  96        -0.00001151
  97         0.00005823
  98        -0.00003552
  99        -0.00000779
 100        -0.00000000
 101         0.00000000
 102         0.00000000
 103        -0.00000000
 104        -0.00000000
 105        -0.00000000
 106        -0.00080030
 107         0.00127865
 108         0.00123456
 109        -0.00126806
 110        -0.00088443
 111        -0.00005029
 112        -0.00085890
 113        -0.00059905
 114        -0.00003407
 115         0.00000000
 116        -0.00000000
 117        -0.00000000
 118         0.00000000
 119         0.00000000
 120        -0.00000000
 121         0.00119795
 122         0.00133757
 123         0.00000000
 124        -0.00000000
 125        -0.00000000
 126         0.00013725
 127         0.00015324
 128        -0.00000000
 129         0.00000000
 130        -0.00000000
 131         0.00016242
 132         0.00018135
 133         0.00000000
 134         0.00000000
 135         0.00000000
 136         0.29773519
 137         0.00655078
 138         0.00092026
 139        -0.00134991
 140         0.00077592
 141         0.00017467
 142        -0.00084302
 143         0.00048456
 144         0.00010908
 145        -0.00000000
 146        -0.00000000
 147         0.00000000
 148         0.00000000
 149         0.00000000
 150        -0.00000000
 151         0.00077660
 152         0.00086711
 153        -0.00000000
 154         0.00000000
 155        -0.00000000
 156         0.00077662
 157         0.00086714
 158         0.00000000
 159        -0.00000000
 160        -0.00000000
 161         0.00079300
 162         0.00088542
 163        -0.00000000
 164         0.00000000
 165        -0.00000000
Sym=     6a  
Ene=   -11.3440
Spin= Alpha
Occup=    2.00000
   1        -0.00308247
   2         0.00188066
   3         0.00203330
   4        -0.00000130
   5         0.00256271
   6         0.00034095
   7        -0.00000076
   8         0.00148726
   9         0.00019787
  10         0.00000000
  11        -0.00000000
  12         0.00000000
  13        -0.00000000
  14         0.00000000
  15         0.00000000
  16         0.98836547
  17         0.01837868
  18        -0.00069418
  19        -0.00004222
  20         0.00000340
  21         0.00000267
  22        -0.00002636
  23         0.00000212
  24         0.00000167
  25         0.00000000
  26         0.00000000
  27         0.00000000
  28        -0.00000000
  29         0.00000000
  30         0.00000000
  31        -0.00267931
  32         0.00164332
  33         0.00177642
  34        -0.00263266
  35        -0.00097090
  36         0.00000995
  37        -0.00152785
  38        -0.00056346
  39         0.00000577
  40         0.00000000
  41        -0.00000000
  42         0.00000000
  43        -0.00000000
  44         0.00000000
  45         0.00000000
  46        -0.09719838
  47        -0.00167010
  48         0.00022114
  49        -0.00029428
  50        -0.00001551
  51         0.00001351
  52        -0.00018378
  53        -0.00000969
  54         0.00000844
  55        -0.00000000
  56        -0.00000000
  57        -0.00000000
  58         0.00000000
  59        -0.00000000
  60         0.00000000
  61         0.00242869
  62        -0.00001431
  63        -0.00006791
  64        -0.00025316
  65        -0.00014780
  66        -0.00000625
  67        -0.00015810
  68        -0.00009230
  69        -0.00000390
  70        -0.00000000
  71        -0.00000000
  72        -0.00000000