   This run of MOLCAS is using the pymolcas driver

                             OPE
                             OPE          NMOL  CASOP  ENMOLC A   SO
                 OPE        NMOLC        AS  OP EN  MO LC     AS  OP
                OPENM       OL CA        SO  PE NM  OL CA     SOP EN
                OP EN      MO   LC       AS  OP ENMOL  CASO   PENMOL
                OP  EN     MO   LC       AS  OP EN     MO     LC ASO
               OP   E  NMOL  C  AS       OP  EN MO     LC     AS  OP
               OP  E   NMO   LC AS        OPEN  MO     LCASOP EN   M
               O  PEN   MO  LCA  SO
            OPE   NMO   L   CAS    OP
        OPENMOL  CASOP     ENMOL   CASOPE
     OPENMOLCA   SOPENMOLCASOPEN   MOLCASOPE
    OPENMOLCAS   OP           EN   MOL    CAS
    OPENMOLCAS       OP  ENM        O     LCA
    OPENMOLCAS    OPEN  MOLCASO     P  E  NMO
    OPENMOLCAS     OP               E  N  MOL
    OPENMOLCA   SO           PENM   O  L  CAS    OPEN    MO    LCAS
    OPENMOLCA   SOP           ENM   O  L  CAS   OP  EN  MOLC  AS   O
    OPENMOLCA   SOPE           NM      O  LCA   S      OP  EN MO
    OPENMOLC                AS         O  PEN   M      OL  CA  SOPE
    OPENMO        LCASOPE  NMOL        C  ASO   P      ENMOLC     AS
    OPE     NMO      LCA  SO     P     E   NM   OL  CA SO  PE N   MO
          OPENMOLCA            SOPE   NMO        LCAS  O    P  ENMO
     OPENMOLCASOPENMOLCASOPENMOLCASOPENMOLCA
        OPENMOLCASOPENMOLCASOPENMOLCASOPE
            OPENMOLCASOPENMOLCASOPENM
               OPENMOLCASOPENMOLCA        version: 22.02
                   OPENMOLCASO
                       OPE                tag: 1-g9a97a9f70

 OpenMolcas is free software; you can redistribute it and/or modify it
 under the terms of the GNU Lesser General Public License version 2.1.
 OpenMolcas is distributed in the hope that it will be useful, but it
 is provided "as is" and without any express or implied warranties.
 For more details see the full text of the license in the file
 LICENSE or in <http://www.gnu.org/licenses/>.

                 Copyright (C) The OpenMolcas Authors
           For the author list and the recommended citation,
                   consult the file CONTRIBUTORS.md

           *************************************************
           * pymolcas version py2.06                       *
           *   build bf02a7b0d12655ada6bc2259076d6962      *
           *   (after the EMIL interpreter by V. Veryazov) *
           *************************************************

configuration info
------------------
Host name: robb (Linux)
C Compiler ID: Intel
C flags: -std=gnu99 -gcc-sys
Fortran Compiler ID: Intel
Fortran flags: -fpp -i8 -r8 -heap-arrays
Definitions: _MOLCAS_;_I8_;_LINUX_
Parallel: OFF (GA=OFF)


   --------------------------------------------------------------------------------------------------
  |
  |           Project: scf
  |    Submitted from: /scr/marlenne/_scf/Work
  |      Scratch area: /scr/marlenne/_scf/Work
  |   Save outputs to: /home/marlenne/thymine/Thymine/MOLCAS/3.Ground_State/1.GS_non-planar/try2/orbs
  |            Molcas: /soft/OPENMOLCAS/hdf5_wfa_intel
  |
  | Scratch area is NOT empty
  |
  |    MOLCAS_DRIVER = /soft/bin/pymolcas
  |       MOLCAS_FIM = 1
  |    MOLCAS_MAXMEM = 8000
  |    MOLCAS_NPROCS = 1
  |     MOLCAS_PRINT = 3
  |    MOLCAS_SOURCE = /soft/OPENMOLCAS/hdf5_wfa_intel/
  | MOLCAS_STRUCTURE = 0
  |
   --------------------------------------------------------------------------------------------------

++ ---------   Input file   ---------

&GATEWAY
    coord=$HomeDir/mp2.Opt.xyz
    basis=6-31G**
    group=nosymm
    RICD

&SEWARD
DoAnal

&SCF

-- ----------------------------------

*** symbolic link created: INPORB -> scf.ScfOrb
--- Start Module: gateway at Fri May  5 16:18:21 2023 ---
 
()()()()()()()()()()()()()()()()()()()()()()()()()()()()()()()()()()()()()()()()()()()()()()()()()()

                                              &GATEWAY

                                   only a single process is used
                       available to each process: 4.0 GB of memory, 1 thread?
                                             pid: 14495
()()()()()()()()()()()()()()()()()()()()()()()()()()()()()()()()()()()()()()()()()()()()()()()()()()
 
 
 
 Basis Set     1 Label: N.6-31G**
 Basis set is read from library:basis_library 
 Basis Set Reference(s):
     P.C. Hariharan, J.A. Pople. Theor. Chim. Acta 28 (1973) 213-222. doi:10.1007/bf00533485
     NITROGEN (10s,4p,1d) -> [3s,2p,1d]
 
 
 
 
 Basis Set     2 Label: C.6-31G**
 Basis set is read from library:basis_library 
 Basis Set Reference(s):
     P.C. Hariharan, J.A. Pople. Theor. Chim. Acta 28 (1973) 213-222. doi:10.1007/bf00533485
     CARBON (10s,4p,1d) -> [3s,2p,1d]
 
 
 
 
 Basis Set     3 Label: N.6-31G**
 Basis set is read from library:basis_library 
 Basis Set Reference(s):
     P.C. Hariharan, J.A. Pople. Theor. Chim. Acta 28 (1973) 213-222. doi:10.1007/bf00533485
     NITROGEN (10s,4p,1d) -> [3s,2p,1d]
 
 
 
 
 Basis Set     4 Label: C.6-31G**
 Basis set is read from library:basis_library 
 Basis Set Reference(s):
     P.C. Hariharan, J.A. Pople. Theor. Chim. Acta 28 (1973) 213-222. doi:10.1007/bf00533485
     CARBON (10s,4p,1d) -> [3s,2p,1d]
 
 
 
 
 Basis Set     5 Label: O.6-31G**
 Basis set is read from library:basis_library 
 Basis Set Reference(s):
     P.C. Hariharan, J.A. Pople. Theor. Chim. Acta 28 (1973) 213-222. doi:10.1007/bf00533485
     OXYGEN (10s,4p,1d) -> [3s,2p,1d]
 
 
 
 
 Basis Set     6 Label: H.6-31G**
 Basis set is read from library:basis_library 
 Basis Set Reference(s):
     P.C. Hariharan, J.A. Pople. Theor. Chim. Acta 28 (1973) 213-222. doi:10.1007/bf00533485
     HYDROGEN (4s,1p) -> [2s,1p]
 
 
 
 
 Basis Set     7 Label: C.6-31G**
 Basis set is read from library:basis_library 
 Basis Set Reference(s):
     P.C. Hariharan, J.A. Pople. Theor. Chim. Acta 28 (1973) 213-222. doi:10.1007/bf00533485
     CARBON (10s,4p,1d) -> [3s,2p,1d]
 
 
 
 
 Basis Set     8 Label: H.6-31G**
 Basis set is read from library:basis_library 
 Basis Set Reference(s):
     P.C. Hariharan, J.A. Pople. Theor. Chim. Acta 28 (1973) 213-222. doi:10.1007/bf00533485
     HYDROGEN (4s,1p) -> [2s,1p]
 
 
 
 
 Basis Set    10 Label: N.6-31G**....acCD-aux-basis.
 On-the-fly basis set generation
 
 
 Basis Set    11 Label: N.6-31G**....acCD-aux-basis.
 On-the-fly basis set generation
 
 
 Basis Set    12 Label: C.6-31G**....acCD-aux-basis.
 On-the-fly basis set generation
 
 
 Basis Set    13 Label: C.6-31G**....acCD-aux-basis.
 On-the-fly basis set generation
 
 
 Basis Set    14 Label: N.6-31G**....acCD-aux-basis.
 On-the-fly basis set generation
 
 
 Basis Set    15 Label: N.6-31G**....acCD-aux-basis.
 On-the-fly basis set generation
 
 
 Basis Set    16 Label: C.6-31G**....acCD-aux-basis.
 On-the-fly basis set generation
 
 
 Basis Set    17 Label: C.6-31G**....acCD-aux-basis.
 On-the-fly basis set generation
 
 
 Basis Set    18 Label: O.6-31G**....acCD-aux-basis.
 On-the-fly basis set generation
 
 
 Basis Set    19 Label: O.6-31G**....acCD-aux-basis.
 On-the-fly basis set generation
 
 
 Basis Set    20 Label: H.6-31G**....acCD-aux-basis.
 On-the-fly basis set generation
 
 
 Basis Set    21 Label: C.6-31G**....acCD-aux-basis.
 On-the-fly basis set generation
 
 
 Basis Set    22 Label: C.6-31G**....acCD-aux-basis.
 On-the-fly basis set generation
 
 
 Basis Set    23 Label: H.6-31G**....acCD-aux-basis.
 On-the-fly basis set generation
 
  Weights used for alignment and distance                     
  mat. size =    15x    1
       14.0030740044299993
       12.0000000000000000
       14.0030740044299993
       12.0000000000000000
       12.0000000000000000
       12.0000000000000000
       15.9949146195700003
       15.9949146195700003
        1.0078250322300000
        1.0078250322300000
        1.0078250322300000
       12.0000000000000000
        1.0078250322300000
        1.0078250322300000
        1.0078250322300000
 
 
++    Symmetry information:
      ---------------------
 
                    Character Table for C1 
 
                             E  
                    a        1  x, y, xy, Rz, z, xz, Ry, yz, Rx, I
--
 
 
++    Basis set information:
      ----------------------
 
 
      Basis set label: N.6-31G**.........
 
      Electronic valence basis set:
      ------------------
      Associated Effective Charge   7.000000 au
      Associated Actual Charge      7.000000 au
      Nuclear Model: Point charge
 
      Shell  nPrim  nBasis  Cartesian Spherical Contaminant
         s      10       3        X                  
         p       4       2        X                  
         d       1       1        X                  
 
       Label   Cartesian Coordinates / Bohr
 
 N1                -2.2636129548       -1.8042531695       -0.1927894057
 
 
      Basis set label: C.6-31G**.........
 
      Electronic valence basis set:
      ------------------
      Associated Effective Charge   6.000000 au
      Associated Actual Charge      6.000000 au
      Nuclear Model: Point charge
 
      Shell  nPrim  nBasis  Cartesian Spherical Contaminant
         s      10       3        X                  
         p       4       2        X                  
         d       1       1        X                  
 
       Label   Cartesian Coordinates / Bohr
 
 C2                -2.3415649134        0.7891192428        0.1562844512
 
 
      Basis set label: N.6-31G**.........
 
      Electronic valence basis set:
      ------------------
      Associated Effective Charge   7.000000 au
      Associated Actual Charge      7.000000 au
      Nuclear Model: Point charge
 
      Shell  nPrim  nBasis  Cartesian Spherical Contaminant
         s      10       3        X                  
         p       4       2        X                  
         d       1       1        X                  
 
       Label   Cartesian Coordinates / Bohr
 
 N3                 0.0498431706        1.8576709082        0.1721093579
 
 
      Basis set label: C.6-31G**.........
 
      Electronic valence basis set:
      ------------------
      Associated Effective Charge   6.000000 au
      Associated Actual Charge      6.000000 au
      Nuclear Model: Point charge
 
      Shell  nPrim  nBasis  Cartesian Spherical Contaminant
         s      10       3        X                  
         p       4       2        X                  
         d       1       1        X                  
 
       Label   Cartesian Coordinates / Bohr
 
 C4                 2.3979839529        0.6618195810       -0.1115145716
 C5                 2.2450790879       -2.0746584270       -0.4674433156
 C6                -0.0653134891       -3.1738082544       -0.4909193832
 
 
      Basis set label: O.6-31G**.........
 
      Electronic valence basis set:
      ------------------
      Associated Effective Charge   8.000000 au
      Associated Actual Charge      8.000000 au
      Nuclear Model: Point charge
 
      Shell  nPrim  nBasis  Cartesian Spherical Contaminant
         s      10       3        X                  
         p       4       2        X                  
         d       1       1        X                  
 
       Label   Cartesian Coordinates / Bohr
 
 O7                -4.3039318834        1.9862318111        0.4188749731
 O8                 4.3713109944        1.8877512663       -0.0532532381
 
 
      Basis set label: H.6-31G**.........
 
      Electronic valence basis set:
      ------------------
      Associated Effective Charge   1.000000 au
      Associated Actual Charge      1.000000 au
      Nuclear Model: Point charge
 
      Shell  nPrim  nBasis  Cartesian Spherical Contaminant
         s       4       2        X                  
         p       1       1        X                  
 
       Label   Cartesian Coordinates / Bohr
 
 H9                -0.3186456758       -5.1862239217       -0.7452157082
 H10                0.0973904940        3.7530800629        0.4210918675
 H11               -3.9638118324       -2.6616540754       -0.2165781852
 
 
      Basis set label: C.6-31G**.........
 
      Electronic valence basis set:
      ------------------
      Associated Effective Charge   6.000000 au
      Associated Actual Charge      6.000000 au
      Nuclear Model: Point charge
 
      Shell  nPrim  nBasis  Cartesian Spherical Contaminant
         s      10       3        X                  
         p       4       2        X                  
         d       1       1        X                  
 
       Label   Cartesian Coordinates / Bohr
 
 C12                4.6689175934       -3.4930898798       -0.7843961559
 
 
      Basis set label: H.6-31G**.........
 
      Electronic valence basis set:
      ------------------
      Associated Effective Charge   1.000000 au
      Associated Actual Charge      1.000000 au
      Nuclear Model: Point charge
 
      Shell  nPrim  nBasis  Cartesian Spherical Contaminant
         s       4       2        X                  
         p       1       1        X                  
 
       Label   Cartesian Coordinates / Bohr
 
 H13                5.7047367457       -2.7926636475       -2.4192668422
 H14                5.8795152472       -3.2265736030        0.8586746758
 H15                4.3175579993       -5.5050203977       -1.0320327647
--
 
 
++    Molecular structure info:
      -------------------------
 
                    ************************************************ 
                    **** Cartesian Coordinates / Bohr, Angstrom **** 
                    ************************************************ 
 
     Center  Label                x              y              z                     x              y              z
        1      N1              -2.263613      -1.804253      -0.192789             -1.197852      -0.954770      -0.102020
        2      C2              -2.341565       0.789119       0.156284             -1.239103       0.417584       0.082702
        3      N3               0.049843       1.857671       0.172109              0.026376       0.983037       0.091076
        4      C4               2.397984       0.661820      -0.111515              1.268958       0.350220      -0.059011
        5      C5               2.245079      -2.074658      -0.467443              1.188045      -1.097862      -0.247360
        6      C6              -0.065313      -3.173808      -0.490919             -0.034562      -1.679507      -0.259783
        7      O7              -4.303932       1.986232       0.418875             -2.277543       1.051069       0.221659
        8      O8               4.371311       1.887751      -0.053253              2.313198       0.998955      -0.028180
        9      H9              -0.318646      -5.186224      -0.745216             -0.168620      -2.744432      -0.394351
       10      H10              0.097390       3.753080       0.421092              0.051537       1.986044       0.222832
       11      H11             -3.963812      -2.661654      -0.216578             -2.097559      -1.408487      -0.114608
       12      C12              4.668918      -3.493090      -0.784396              2.470685      -1.848464      -0.415085
       13      H13              5.704737      -2.792664      -2.419267              3.018817      -1.477814      -1.280221
       14      H14              5.879515      -3.226574       0.858675              3.111305      -1.707429       0.454391
       15      H15              4.317558      -5.505020      -1.032033              2.284753      -2.913131      -0.546128
 
                    *************************************** 
                    *    InterNuclear Distances / Bohr    * 
                    *************************************** 
 
               1 N1            2 C2            3 N3            4 C4            5 C5            6 C6    
    1 N1       0.000000
    2 C2       2.617921        0.000000
    3 N3       4.346829        2.619329        0.000000
    4 C4       5.274335        4.748815        2.650334        0.000000
    5 C5       4.525136        5.443121        4.548769        2.763761        0.000000
    6 C6       2.607122        4.615733        5.076283        4.574257        2.558632        0.000000
    7 O7       4.347966        2.313637        4.362657        6.852084        7.756670        6.739408
    8 O8       7.594247        6.805410        4.327445        2.323859        4.515873        6.744967
    9 H9       3.940279        6.372569        7.112927        6.479295        4.041248        2.044177
   10 H10      6.069196        3.847556        1.912284        3.890025        6.274121        6.988563
   11 H11      1.904305        3.831259        6.056798        7.178368        6.241620        3.941555
   12 C12      7.159759        8.268559        7.133119        4.782592        2.826199        4.754052
   13 H13      8.332392        9.176361        7.766509        5.309782        4.036629        6.095677
   14 H14      8.333013        9.176345        7.765693        5.308665        4.036660        6.096325
   15 H15      7.596830        9.239708        8.594915        6.523958        4.047384        4.993688
 
               7 O7            8 O8            9 H9           10 H10          11 H11          12 C12   
    7 O7       0.000000
    8 O8       8.688639        0.000000
    9 H9       8.287444        8.515611        0.000000
   10 H10      4.742720        4.687307        9.024661        0.000000
   11 H11      4.703438        9.497265        4.465439        7.618976        0.000000
   12 C12     10.582195        5.438436        5.267260        8.652112        8.691244        0.000000
   13 H13     11.448421        5.411315        6.694230        9.075061        9.917148        2.058232
   14 H14     11.448553        5.409493        6.695513        9.074140        9.917983        2.058218
   15 H15     11.513213        7.457478        4.655994       10.277831        8.793792        2.057339
 
              13 H13          14 H14          15 H15   
   13 H13      0.000000
   14 H14      3.311152        0.000000
   15 H15      3.347471        3.347507        0.000000
 
                    ******************************************* 
                    *    InterNuclear Distances / Angstrom    * 
                    ******************************************* 
 
               1 N1            2 C2            3 N3            4 C4            5 C5            6 C6    
    1 N1       0.000000
    2 C2       1.385344        0.000000
    3 N3       2.300243        1.386089        0.000000
    4 C4       2.791058        2.512965        1.402496        0.000000
    5 C5       2.394599        2.880375        2.407105        1.462520        0.000000
    6 C6       1.379629        2.442541        2.686253        2.420592        1.353969        0.000000
    7 O7       2.300845        1.224324        2.308619        3.625967        4.104653        3.566341
    8 O8       4.018702        3.601268        2.289985        1.229733        2.389697        3.569283
    9 H9       2.085106        3.372218        3.763999        3.428695        2.138536        1.081732
   10 H10      3.211680        2.036039        1.011937        2.058512        3.320122        3.698189
   11 H11      1.007715        2.027415        3.205120        3.798629        3.302923        2.085781
   12 C12      3.788781        4.375533        3.774684        2.530838        1.495560        2.515736
   13 H13      4.409312        4.855921        4.109860        2.809816        2.136092        3.225693
   14 H14      4.409641        4.855912        4.109428        2.809225        2.136108        3.226036
   15 H15      4.020069        4.889443        4.548233        3.452330        2.141783        2.642546
 
               7 O7            8 O8            9 H9           10 H10          11 H11          12 C12   
    7 O7       0.000000
    8 O8       4.597830        0.000000
    9 H9       4.385527        4.506267        0.000000
   10 H10      2.509740        2.480416        4.775645        0.000000
   11 H11      2.488952        5.025736        2.363009        4.031789        0.000000
   12 C12      5.599857        2.877897        2.787314        4.578500        4.599208        0.000000
   13 H13      6.058243        2.863544        3.542434        4.802315        5.247929        1.089170
   14 H14      6.058313        2.862580        3.543113        4.801828        5.248371        1.089162
   15 H15      6.092530        3.946327        2.463846        5.438794        4.653475        1.088697
 
              13 H13          14 H14          15 H15   
   13 H13      0.000000
   14 H14      1.752186        0.000000
   15 H15      1.771405        1.771425        0.000000
 
                    ************************************** 
                    *    Valence Bond Angles / Degree    * 
                    ************************************** 
                          Atom centers                 Phi
                      2 C2       1 N1       6 C6       124.11
                      2 C2       1 N1      11 H11      114.90
                      6 C6       1 N1      11 H11      120.99
                      1 N1       2 C2       3 N3       112.19
                      1 N1       2 C2       7 O7       123.57
                      3 N3       2 C2       7 O7       124.24
                      2 C2       3 N3       4 C4       128.62
                      2 C2       3 N3      10 H10      115.33
                      4 C4       3 N3      10 H10      116.05
                      3 N3       4 C4       5 C5       114.30
                      3 N3       4 C4       8 O8       120.77
                      5 C5       4 C4       8 O8       124.93
                      4 C4       5 C5       6 C6       118.46
                      4 C4       5 C5      12 C12      117.64
                      6 C6       5 C5      12 C12      123.90
                      1 N1       6 C6       5 C5       122.32
                      1 N1       6 C6       9 H9       115.27
                      5 C5       6 C6       9 H9       122.41
                      5 C5      12 C12     13 H13      110.48
                      5 C5      12 C12     14 H14      110.48
                      5 C5      12 C12     15 H15      110.97
                     13 H13     12 C12     14 H14      107.10
                     13 H13     12 C12     15 H15      108.85
                     14 H14     12 C12     15 H15      108.85
 
           ***************************************************************
           *              Valence Dihedral Angles / Degree               *
           ***************************************************************
                    Atom centers                       Phi1     Phi2     Theta 
           6 C6       1 N1       2 C2       7 O7        124.11   123.57   180.00
           2 C2       1 N1       6 C6       5 C5        124.11   122.32    -0.02
           2 C2       1 N1       6 C6       9 H9        124.11   115.27   180.00
           3 N3       2 C2       1 N1       6 C6        112.19   124.11     0.00
           3 N3       2 C2       1 N1      11 H11       112.19   114.90   179.98
           7 O7       2 C2       1 N1      11 H11       123.57   114.90    -0.02
           1 N1       2 C2       3 N3       4 C4        112.19   128.62     0.01
           1 N1       2 C2       3 N3      10 H10       112.19   115.33   179.98
           7 O7       2 C2       3 N3      10 H10       124.24   115.33    -0.01
           4 C4       3 N3       2 C2       7 O7        128.62   124.24  -179.98
           2 C2       3 N3       4 C4       5 C5        128.62   114.30    -0.01
           2 C2       3 N3       4 C4       8 O8        128.62   120.77   179.98
           5 C5       4 C4       3 N3      10 H10       114.30   116.05  -179.98
           8 O8       4 C4       3 N3      10 H10       120.77   116.05     0.02
           3 N3       4 C4       5 C5       6 C6        114.30   118.46    -0.01
           3 N3       4 C4       5 C5      12 C12       114.30   117.64  -179.99
           8 O8       4 C4       5 C5      12 C12       124.93   117.64     0.01
           6 C6       5 C5       4 C4       8 O8        118.46   124.93   180.00
           4 C4       5 C5       6 C6       9 H9        118.46   122.41   180.00
           4 C4       5 C5      12 C12     13 H13       117.64   110.48   -59.21
           4 C4       5 C5      12 C12     14 H14       117.64   110.48    59.12
           4 C4       5 C5      12 C12     15 H15       117.64   110.97   179.96
           6 C6       5 C5      12 C12     13 H13       123.90   110.48   120.80
           6 C6       5 C5      12 C12     14 H14       123.90   110.48  -120.87
           6 C6       5 C5      12 C12     15 H15       123.90   110.97    -0.03
           5 C5       6 C6       1 N1      11 H11       122.32   120.99   180.00
           9 H9       6 C6       1 N1      11 H11       115.27   120.99     0.02
           1 N1       6 C6       5 C5       4 C4        122.32   118.46     0.02
           1 N1       6 C6       5 C5      12 C12       122.32   123.90  -179.99
           9 H9       6 C6       5 C5      12 C12       122.41   123.90    -0.01
--
 
 
++    Isotope specification:
      ----------------------
 
 Center
 Type   Z    A    mass (Da)
 --------------------------
    1   7   14    14.003074
    2   6   12    12.000000
    3   7   14    14.003074
    4   6   12    12.000000
    5   8   16    15.994915
    6   1    1     1.007825
    7   6   12    12.000000
    8   1    1     1.007825
--
 
 
++    Rigid rotor info:
      -----------------
 
 
                    Total mass (a) : 126.04293
 
                    Center of mass 
                          X          Y   
                       0.51370   -0.32145   -0.14261
 
                    Reference system based on center of mass
                    Coordinates and Masses of Atoms, in au and A
                          X          Y          Z        Mass
                      -2.77731   -1.48280   -0.05018   14.00307
                      -2.85526    1.11057    0.29890   12.00000
                      -0.46385    2.17912    0.31472   14.00307
                       1.88429    0.98327    0.03110   12.00000
                       1.73138   -1.75321   -0.32483   12.00000
                      -0.57901   -2.85236   -0.34831   12.00000
                      -4.81763    2.30768    0.56149   15.99491
                       3.85761    2.20920    0.08936   15.99491
                      -0.83234   -4.86477   -0.60260    1.00783
                      -0.41631    4.07453    0.56370    1.00783
                      -4.47751   -2.34020   -0.07397    1.00783
                       4.15522   -3.17164   -0.64178   12.00000
                       5.19104   -2.47121   -2.27666    1.00783
                       5.36582   -2.90512    1.00129    1.00783
                       3.80386   -5.18357   -0.88942    1.00783
 
                    The Moment of Inertia Tensor / au
                                     X          Y        Z     
                    X             0.1190E+07
                    Y             0.4086E+06 0.2229E+07
                    Z             0.1696E+06-0.1730E+06 0.3335E+07
 
                    The Principal Axes and Moments of Inertia (au)
                    Eigenvalues : 0.3367E+07 0.2359E+07 0.1029E+07
                                     X'         Y'       Z'    
                    Eigenvectors:
                    X             0.5240E-01 0.3419E+00 0.9383E+00
                    Y            -0.1316E+00 0.9337E+00-0.3329E+00
                    Z             0.9899E+00 0.1060E+00-0.9392E-01
 
                    The Rotational Constants
                            (cm-1)            (GHz)
                              0.033            0.977
                              0.047            1.395
                              0.107            3.199
 
 
                    *******************************************
                    *                                         *
                    * R I G I D - R O T O R   A N A L Y S I S *
                    *                                         *
                    *******************************************
 
                    j(Max):  5
 
                    Rotor Type: Linear Rotor
                    Asymmetry parameter: -0.624
                    Prolate = -1
                    Oblate  =  1
 
 
                    Rotational energies / cm-1
 
                    E(J= 0,kappa= 0) =        0.000
 
                    E(J= 1,kappa=-1) =        0.079
                    E(J= 1,kappa= 0) =        0.139
                    E(J= 1,kappa= 1) =        0.153
 
                    E(J= 2,kappa=-2) =        0.235
                    E(J= 2,kappa=-1) =        0.284
                    E(J= 2,kappa= 0) =        0.325
                    E(J= 2,kappa= 1) =        0.506
                    E(J= 2,kappa= 2) =        0.508
 
                    E(J= 3,kappa=-3) =        0.464
                    E(J= 3,kappa=-2) =        0.499
                    E(J= 3,kappa=-1) =        0.582
                    E(J= 3,kappa= 0) =        0.743
                    E(J= 3,kappa= 1) =        0.754
                    E(J= 3,kappa= 2) =        1.080
                    E(J= 3,kappa= 3) =        1.080
 
                    E(J= 4,kappa=-4) =        0.762
                    E(J= 4,kappa=-3) =        0.784
                    E(J= 4,kappa=-2) =        0.921
                    E(J= 4,kappa=-1) =        1.058
                    E(J= 4,kappa= 0) =        1.087
                    E(J= 4,kappa= 1) =        1.400
                    E(J= 4,kappa= 2) =        1.402
                    E(J= 4,kappa= 3) =        1.867
                    E(J= 4,kappa= 4) =        1.867
 
                    E(J= 5,kappa=-5) =        1.124
                    E(J= 5,kappa=-4) =        1.137
                    E(J= 5,kappa=-3) =        1.340
                    E(J= 5,kappa=-2) =        1.449
                    E(J= 5,kappa=-1) =        1.511
                    E(J= 5,kappa= 0) =        1.801
                    E(J= 5,kappa= 1) =        1.807
                    E(J= 5,kappa= 2) =        2.267
                    E(J= 5,kappa= 3) =        2.267
                    E(J= 5,kappa= 4) =        2.867
                    E(J= 5,kappa= 5) =        2.867
--
 
 
++    Primitive basis info:
      ---------------------
 
 
                    *****************************************************
                    ******** Primitive Basis Functions (Valence) ********
                    *****************************************************
 
 
 Basis set:N.6-31G**.........                                                              
 
                  Type         
                   s
           No.      Exponent    Contraction Coefficients
            1  0.417351146D+04   0.001835   0.000000   0.000000
            2  0.627457911D+03   0.013995   0.000000   0.000000
            3  0.142902093D+03   0.068587   0.000000   0.000000
            4  0.402343293D+02   0.232241   0.000000   0.000000
            5  0.128202129D+02   0.469070   0.000000   0.000000
            6  0.116263619D+02   0.000000  -0.114961   0.000000
            7  0.439043701D+01   0.360455   0.000000   0.000000
            8  0.271627981D+01   0.000000  -0.169117   0.000000
            9  0.772218397D+00   0.000000   1.145852   0.000000
           10  0.212031497D+00   0.000000   0.000000   1.000000
 
                  Type         
                   p
           No.      Exponent    Contraction Coefficients
           11  0.116263619D+02   0.067580   0.000000
           12  0.271627981D+01   0.323907   0.000000
           13  0.772218397D+00   0.740895   0.000000
           14  0.212031497D+00   0.000000   1.000000
 
                  Type         
                   d
           No.      Exponent    Contraction Coefficients
           15  0.800000000D+00   1.000000
 
 
 Basis set:C.6-31G**.........                                                              
 
                  Type         
                   s
           No.      Exponent    Contraction Coefficients
           16  0.304752488D+04   0.001835   0.000000   0.000000
           17  0.457369518D+03   0.014037   0.000000   0.000000
           18  0.103948685D+03   0.068843   0.000000   0.000000
           19  0.292101553D+02   0.232184   0.000000   0.000000
           20  0.928666296D+01   0.467941   0.000000   0.000000
           21  0.786827235D+01   0.000000  -0.119332   0.000000
           22  0.316392696D+01   0.362312   0.000000   0.000000
           23  0.188128854D+01   0.000000  -0.160854   0.000000
           24  0.544249258D+00   0.000000   1.143456   0.000000
           25  0.168714478D+00   0.000000   0.000000   1.000000
 
                  Type         
                   p
           No.      Exponent    Contraction Coefficients
           26  0.786827235D+01   0.068999   0.000000
           27  0.188128854D+01   0.316424   0.000000
           28  0.544249258D+00   0.744308   0.000000
           29  0.168714478D+00   0.000000   1.000000
 
                  Type         
                   d
           No.      Exponent    Contraction Coefficients
           30  0.800000000D+00   1.000000
 
 
 Basis set:N.6-31G**.........                                                              
 
                  Type         
                   s
           No.      Exponent    Contraction Coefficients
           31  0.417351146D+04   0.001835   0.000000   0.000000
           32  0.627457911D+03   0.013995   0.000000   0.000000
           33  0.142902093D+03   0.068587   0.000000   0.000000
           34  0.402343293D+02   0.232241   0.000000   0.000000
           35  0.128202129D+02   0.469070   0.000000   0.000000
           36  0.116263619D+02   0.000000  -0.114961   0.000000
           37  0.439043701D+01   0.360455   0.000000   0.000000
           38  0.271627981D+01   0.000000  -0.169117   0.000000
           39  0.772218397D+00   0.000000   1.145852   0.000000
           40  0.212031497D+00   0.000000   0.000000   1.000000
 
                  Type         
                   p
           No.      Exponent    Contraction Coefficients
           41  0.116263619D+02   0.067580   0.000000
           42  0.271627981D+01   0.323907   0.000000
           43  0.772218397D+00   0.740895   0.000000
           44  0.212031497D+00   0.000000   1.000000
 
                  Type         
                   d
           No.      Exponent    Contraction Coefficients
           45  0.800000000D+00   1.000000
 
 
 Basis set:C.6-31G**.........                                                              
 
                  Type         
                   s
           No.      Exponent    Contraction Coefficients
           46  0.304752488D+04   0.001835   0.000000   0.000000
           47  0.457369518D+03   0.014037   0.000000   0.000000
           48  0.103948685D+03   0.068843   0.000000   0.000000
           49  0.292101553D+02   0.232184   0.000000   0.000000
           50  0.928666296D+01   0.467941   0.000000   0.000000
           51  0.786827235D+01   0.000000  -0.119332   0.000000
           52  0.316392696D+01   0.362312   0.000000   0.000000
           53  0.188128854D+01   0.000000  -0.160854   0.000000
           54  0.544249258D+00   0.000000   1.143456   0.000000
           55  0.168714478D+00   0.000000   0.000000   1.000000
 
                  Type         
                   p
           No.      Exponent    Contraction Coefficients
           56  0.786827235D+01   0.068999   0.000000
           57  0.188128854D+01   0.316424   0.000000
           58  0.544249258D+00   0.744308   0.000000
           59  0.168714478D+00   0.000000   1.000000
 
                  Type         
                   d
           No.      Exponent    Contraction Coefficients
           60  0.800000000D+00   1.000000
 
 
 Basis set:O.6-31G**.........                                                              
 
                  Type         
                   s
           No.      Exponent    Contraction Coefficients
           91  0.548467166D+04   0.001831   0.000000   0.000000
           92  0.825234946D+03   0.013950   0.000000   0.000000
           93  0.188046958D+03   0.068445   0.000000   0.000000
           94  0.529645000D+02   0.232714   0.000000   0.000000
           95  0.168975704D+02   0.470193   0.000000   0.000000
           96  0.155396162D+02   0.000000  -0.110778   0.000000
           97  0.579963534D+01   0.358521   0.000000   0.000000
           98  0.359993359D+01   0.000000  -0.148026   0.000000
           99  0.101376175D+01   0.000000   1.130767   0.000000
          100  0.270005823D+00   0.000000   0.000000   1.000000
 
                  Type         
                   p
           No.      Exponent    Contraction Coefficients
          101  0.155396162D+02   0.070874   0.000000
          102  0.359993359D+01   0.339753   0.000000
          103  0.101376175D+01   0.727159   0.000000
          104  0.270005823D+00   0.000000   1.000000
 
                  Type         
                   d
           No.      Exponent    Contraction Coefficients
          105  0.800000000D+00   1.000000
 
 
 Basis set:H.6-31G**.........                                                              
 
                  Type         
                   s
           No.      Exponent    Contraction Coefficients
          121  0.187311370D+02   0.033495   0.000000
          122  0.282539437D+01   0.234727   0.000000
          123  0.640121692D+00   0.813757   0.000000
          124  0.161277759D+00   0.000000   1.000000
 
                  Type         
                   p
           No.      Exponent    Contraction Coefficients
          125  0.110000000D+01   1.000000
 
 
 Basis set:C.6-31G**.........                                                              
 
                  Type         
                   s
           No.      Exponent    Contraction Coefficients
          136  0.304752488D+04   0.001835   0.000000   0.000000
          137  0.457369518D+03   0.014037   0.000000   0.000000
          138  0.103948685D+03   0.068843   0.000000   0.000000
          139  0.292101553D+02   0.232184   0.000000   0.000000
          140  0.928666296D+01   0.467941   0.000000   0.000000
          141  0.786827235D+01   0.000000  -0.119332   0.000000
          142  0.316392696D+01   0.362312   0.000000   0.000000
          143  0.188128854D+01   0.000000  -0.160854   0.000000
          144  0.544249258D+00   0.000000   1.143456   0.000000
          145  0.168714478D+00   0.000000   0.000000   1.000000
 
                  Type         
                   p
           No.      Exponent    Contraction Coefficients
          146  0.786827235D+01   0.068999   0.000000
          147  0.188128854D+01   0.316424   0.000000
          148  0.544249258D+00   0.744308   0.000000
          149  0.168714478D+00   0.000000   1.000000
 
                  Type         
                   d
           No.      Exponent    Contraction Coefficients
          150  0.800000000D+00   1.000000
 
 
 Basis set:H.6-31G**.........                                                              
 
                  Type         
                   s
           No.      Exponent    Contraction Coefficients
          151  0.187311370D+02   0.033495   0.000000
          152  0.282539437D+01   0.234727   0.000000
          153  0.640121692D+00   0.813757   0.000000
          154  0.161277759D+00   0.000000   1.000000
 
                  Type         
                   p
           No.      Exponent    Contraction Coefficients
          155  0.110000000D+01   1.000000
 
  Number of primitives                                   294
  Number of basis functions                              165
 
--
 
 
++    SO/AO info:
      -----------
 
                    **************************************************
                    ********** Petite list Basis Functions ***********
                    **************************************************
 
 
           Basis functions generated by E  
 
 Basis Label        Type   Center
    1  N1            1s       1
    2  N1            2s       1
    3  N1            *s       1
    4  N1            2px      1
    5  N1            *px      1
    6  N1            2py      1
    7  N1            *py      1
    8  N1            2pz      1
    9  N1            *pz      1
   10  N1            *200     1
   11  N1            *110     1
   12  N1            *101     1
   13  N1            *020     1
   14  N1            *011     1
   15  N1            *002     1
   16  C2            1s       2
   17  C2            2s       2
   18  C2            *s       2
   19  C2            2px      2
   20  C2            *px      2
   21  C2            2py      2
   22  C2            *py      2
   23  C2            2pz      2
   24  C2            *pz      2
   25  C2            *200     2
   26  C2            *110     2
   27  C2            *101     2
   28  C2            *020     2
   29  C2            *011     2
   30  C2            *002     2
   31  N3            1s       3
   32  N3            2s       3
   33  N3            *s       3
   34  N3            2px      3
   35  N3            *px      3
   36  N3            2py      3
   37  N3            *py      3
   38  N3            2pz      3
   39  N3            *pz      3
   40  N3            *200     3
   41  N3            *110     3
   42  N3            *101     3
   43  N3            *020     3
   44  N3            *011     3
   45  N3            *002     3
   46  C4            1s       4
   47  C4            2s       4
   48  C4            *s       4
   49  C4            2px      4
   50  C4            *px      4
   51  C4            2py      4
   52  C4            *py      4
   53  C4            2pz      4
   54  C4            *pz      4
   55  C4            *200     4
   56  C4            *110     4
   57  C4            *101     4
   58  C4            *020     4
   59  C4            *011     4
   60  C4            *002     4
   61  C5            1s       5
   62  C5            2s       5
   63  C5            *s       5
   64  C5            2px      5
   65  C5            *px      5
   66  C5            2py      5
   67  C5            *py      5
   68  C5            2pz      5
   69  C5            *pz      5
   70  C5            *200     5
   71  C5            *110     5
   72  C5            *101     5
   73  C5            *020     5
   74  C5            *011     5
   75  C5            *002     5
   76  C6            1s       6
   77  C6            2s       6
   78  C6            *s       6
   79  C6            2px      6
   80  C6            *px      6
   81  C6            2py      6
   82  C6            *py      6
   83  C6            2pz      6
   84  C6            *pz      6
   85  C6            *200     6
   86  C6            *110     6
   87  C6            *101     6
   88  C6            *020     6
   89  C6            *011     6
   90  C6            *002     6
   91  O7            1s       7
   92  O7            2s       7
   93  O7            *s       7
   94  O7            2px      7
   95  O7            *px      7
   96  O7            2py      7
   97  O7            *py      7
   98  O7            2pz      7
   99  O7            *pz      7
  100  O7            *200     7
  101  O7            *110     7
  102  O7            *101     7
  103  O7            *020     7
  104  O7            *011     7
  105  O7            *002     7
  106  O8            1s       8
  107  O8            2s       8
  108  O8            *s       8
  109  O8            2px      8
  110  O8            *px      8
  111  O8            2py      8
  112  O8            *py      8
  113  O8            2pz      8
  114  O8            *pz      8
  115  O8            *200     8
  116  O8            *110     8
  117  O8            *101     8
  118  O8            *020     8
  119  O8            *011     8
  120  O8            *002     8
  121  H9            1s       9
  122  H9            *s       9
  123  H9            *px      9
  124  H9            *py      9
  125  H9            *pz      9
  126  H10           1s      10
  127  H10           *s      10
  128  H10           *px     10
  129  H10           *py     10
  130  H10           *pz     10
  131  H11           1s      11
  132  H11           *s      11
  133  H11           *px     11
  134  H11           *py     11
  135  H11           *pz     11
  136  C12           1s      12
  137  C12           2s      12
  138  C12           *s      12
  139  C12           2px     12
  140  C12           *px     12
  141  C12           2py     12
  142  C12           *py     12
  143  C12           2pz     12
  144  C12           *pz     12
  145  C12           *200    12
  146  C12           *110    12
  147  C12           *101    12
  148  C12           *020    12
  149  C12           *011    12
  150  C12           *002    12
  151  H13           1s      13
  152  H13           *s      13
  153  H13           *px     13
  154  H13           *py     13
  155  H13           *pz     13
  156  H14           1s      14
  157  H14           *s      14
  158  H14           *px     14
  159  H14           *py     14
  160  H14           *pz     14
  161  H15           1s      15
  162  H15           *s      15
  163  H15           *px     15
  164  H15           *py     15
  165  H15           *pz     15
 
      Basis set specifications :
      Symmetry species        a  
      Basis functions         165
--
 
 
            Nuclear Potential Energy            438.46157139 au
 
--- Stop Module: gateway at Fri May  5 16:18:22 2023 /rc=_RC_ALL_IS_WELL_ ---
*** files: scf.RICDLib xmldump
    saved to directory /home/marlenne/thymine/Thymine/MOLCAS/3.Ground_State/1.GS_non-planar/try2/orbs

*** symbolic link created: INPORB -> scf.ScfOrb
--- Start Module: seward at Fri May  5 16:18:22 2023 ---
 
()()()()()()()()()()()()()()()()()()()()()()()()()()()()()()()()()()()()()()()()()()()()()()()()()()

                                              &SEWARD

                                   only a single process is used
                       available to each process: 4.0 GB of memory, 1 thread?
                                             pid: 14498
()()()()()()()()()()()()()()()()()()()()()()()()()()()()()()()()()()()()()()()()()()()()()()()()()()
 
 
  Weights used for alignment and distance                     
  mat. size =    15x    1
       14.0030740044299993
       12.0000000000000000
       14.0030740044299993
       12.0000000000000000
       12.0000000000000000
       12.0000000000000000
       15.9949146195700003
       15.9949146195700003
        1.0078250322300000
        1.0078250322300000
        1.0078250322300000
       12.0000000000000000
        1.0078250322300000
        1.0078250322300000
        1.0078250322300000
 
               SEWARD will generate:
                  Multipole Moment integrals up to order  2
                  Kinetic Energy integrals
                  Nuclear Attraction integrals (point charge)
                  One-Electron Hamiltonian integrals
                  Velocity integrals
                  Orbital angular momentum around ( 0.5137 -0.3215 -0.1426 )
                  Velocity quadrupole around ( 0.5137 -0.3215 -0.1426 )
                  RI decomposed two-electron repulsion integrals stored Cholesky style
                   - acCD auxiliary basis
                   - CD Threshold:   0.10E-03
 
                   Integrals are discarded if absolute value <: 0.10E-13
                   Integral cutoff threshold is set to       <: 0.10E-15
 
++    SO/AO info:
      -----------
 
                    **************************************************
                    ********** Petite list Basis Functions ***********
                    **************************************************
 
 
           Basis functions generated by E  
 
 Basis Label        Type   Center
    1  N1            1s       1
    2  N1            2s       1
    3  N1            *s       1
    4  N1            2px      1
    5  N1            *px      1
    6  N1            2py      1
    7  N1            *py      1
    8  N1            2pz      1
    9  N1            *pz      1
   10  N1            *200     1
   11  N1            *110     1
   12  N1            *101     1
   13  N1            *020     1
   14  N1            *011     1
   15  N1            *002     1
   16  C2            1s       2
   17  C2            2s       2
   18  C2            *s       2
   19  C2            2px      2
   20  C2            *px      2
   21  C2            2py      2
   22  C2            *py      2
   23  C2            2pz      2
   24  C2            *pz      2
   25  C2            *200     2
   26  C2            *110     2
   27  C2            *101     2
   28  C2            *020     2
   29  C2            *011     2
   30  C2            *002     2
   31  N3            1s       3
   32  N3            2s       3
   33  N3            *s       3
   34  N3            2px      3
   35  N3            *px      3
   36  N3            2py      3
   37  N3            *py      3
   38  N3            2pz      3
   39  N3            *pz      3
   40  N3            *200     3
   41  N3            *110     3
   42  N3            *101     3
   43  N3            *020     3
   44  N3            *011     3
   45  N3            *002     3
   46  C4            1s       4
   47  C4            2s       4
   48  C4            *s       4
   49  C4            2px      4
   50  C4            *px      4
   51  C4            2py      4
   52  C4            *py      4
   53  C4            2pz      4
   54  C4            *pz      4
   55  C4            *200     4
   56  C4            *110     4
   57  C4            *101     4
   58  C4            *020     4
   59  C4            *011     4
   60  C4            *002     4
   61  C5            1s       5
   62  C5            2s       5
   63  C5            *s       5
   64  C5            2px      5
   65  C5            *px      5
   66  C5            2py      5
   67  C5            *py      5
   68  C5            2pz      5
   69  C5            *pz      5
   70  C5            *200     5
   71  C5            *110     5
   72  C5            *101     5
   73  C5            *020     5
   74  C5            *011     5
   75  C5            *002     5
   76  C6            1s       6
   77  C6            2s       6
   78  C6            *s       6
   79  C6            2px      6
   80  C6            *px      6
   81  C6            2py      6
   82  C6            *py      6
   83  C6            2pz      6
   84  C6            *pz      6
   85  C6            *200     6
   86  C6            *110     6
   87  C6            *101     6
   88  C6            *020     6
   89  C6            *011     6
   90  C6            *002     6
   91  O7            1s       7
   92  O7            2s       7
   93  O7            *s       7
   94  O7            2px      7
   95  O7            *px      7
   96  O7            2py      7
   97  O7            *py      7
   98  O7            2pz      7
   99  O7            *pz      7
  100  O7            *200     7
  101  O7            *110     7
  102  O7            *101     7
  103  O7            *020     7
  104  O7            *011     7
  105  O7            *002     7
  106  O8            1s       8
  107  O8            2s       8
  108  O8            *s       8
  109  O8            2px      8
  110  O8            *px      8
  111  O8            2py      8
  112  O8            *py      8
  113  O8            2pz      8
  114  O8            *pz      8
  115  O8            *200     8
  116  O8            *110     8
  117  O8            *101     8
  118  O8            *020     8
  119  O8            *011     8
  120  O8            *002     8
  121  H9            1s       9
  122  H9            *s       9
  123  H9            *px      9
  124  H9            *py      9
  125  H9            *pz      9
  126  H10           1s      10
  127  H10           *s      10
  128  H10           *px     10
  129  H10           *py     10
  130  H10           *pz     10
  131  H11           1s      11
  132  H11           *s      11
  133  H11           *px     11
  134  H11           *py     11
  135  H11           *pz     11
  136  C12           1s      12
  137  C12           2s      12
  138  C12           *s      12
  139  C12           2px     12
  140  C12           *px     12
  141  C12           2py     12
  142  C12           *py     12
  143  C12           2pz     12
  144  C12           *pz     12
  145  C12           *200    12
  146  C12           *110    12
  147  C12           *101    12
  148  C12           *020    12
  149  C12           *011    12
  150  C12           *002    12
  151  H13           1s      13
  152  H13           *s      13
  153  H13           *px     13
  154  H13           *py     13
  155  H13           *pz     13
  156  H14           1s      14
  157  H14           *s      14
  158  H14           *px     14
  159  H14           *py     14
  160  H14           *pz     14
  161  H15           1s      15
  162  H15           *s      15
  163  H15           *px     15
  164  H15           *py     15
  165  H15           *pz     15
 
      Basis set specifications :
      Symmetry species        a  
      Basis functions         165
--
 
 
            Nuclear Potential Energy            438.46157139 au
 
 
      Basis set specifications :
      Symmetry species         a  
      Basis functions          165
 
 
Seward processing 2-center and 3-center ERIs
 
 2-center integrals:
      CPU time :    0.11 sec.
      Wall time:    0.16 sec.
 3-center integrals:
      CPU time :    1.14 sec.
      Wall time:    1.15 sec.
 Block-transpose:
      CPU time :    0.04 sec.
      Wall time:    0.09 sec.
 Diagonal vector:
      CPU time :    0.04 sec.
      Wall time:    0.03 sec.
      RI vectors               720
 
 
 
  Input file to MOLDEN was generated!
 
++ I/O STATISTICS
 
  I. General I/O information
  - - - - - - - - - - - - - - - - - - - - - - - - - - - - - - - - - - - - - - - - - - -
  Unit  Name          Flsize      Write/Read            MBytes           Write/Read
                      (MBytes)       Calls              In/Out           Time, sec.
  - - - - - - - - - - - - - - - - - - - - - - - - - - - - - - - - - - - - - - - - - - -
   1  RUNFILE           0.70 .    1386/    8312 .     10.2/     60.8 .       0/       0
   2  NQGRID            0.00 .       2/       0 .      0.0/      0.0 .       0/       0
   3  ONEINT            4.50 .      62/     142 .     47.6/     22.6 .       0/       0
   4  AVEC00            0.00 .     721/    1441 .      5.9/     11.9 .       0/       0
   5  ZMAT00            0.00 .       1/       0 .      4.0/      0.0 .       0/       0
   6  AMAT00            1.98 .       2/       1 .      4.0/      2.0 .       0/       0
   7  QMAT00            0.00 .       1/       1 .      2.0/      2.0 .       0/       0
   8  QVEC00            3.96 .     720/       1 .      4.0/      4.0 .       0/       0
   9  RVEC00           74.59 .     770/     770 .     74.6/     74.6 .       0/       0
  10  CHRED             0.22 .       4/       0 .      0.2/      0.0 .       0/       0
  11  CHVEC1           74.73 .       1/       0 .     74.6/      0.0 .       0/       0
  12  CHORST            0.03 .      12/       0 .      0.0/      0.0 .       0/       0
  13  CHOMAP            0.01 .       1/       0 .      0.0/      0.0 .       0/       0
  14  CHODIAG           0.10 .       1/       0 .      0.1/      0.0 .       0/       0
  - - - - - - - - - - - - - - - - - - - - - - - - - - - - - - - - - - - - - - - - - - -
   *  TOTAL           160.81 .    3684/   10668 .    227.1/    177.8 .       0/       0
  - - - - - - - - - - - - - - - - - - - - - - - - - - - - - - - - - - - - - - - - - - -
 
  II. I/O Access Patterns
  - - - - - - - - - - - - - - - - - - - -
  Unit  Name               % of random
                         Write/Read calls
  - - - - - - - - - - - - - - - - - - - -
   1  RUNFILE             28.6/  10.1
   2  NQGRID              50.0/   0.0
   3  ONEINT              95.2/  10.6
   4  AVEC00              99.9/  99.7
   5  ZMAT00               0.0/   0.0
   6  AMAT00              50.0/ 100.0
   7  QMAT00               0.0/ 100.0
   8  QVEC00               0.0/ 100.0
   9  RVEC00               0.0/   0.1
  10  CHRED                0.0/   0.0
  11  CHVEC1               0.0/   0.0
  12  CHORST               0.0/   0.0
  13  CHOMAP               0.0/   0.0
  14  CHODIAG              0.0/   0.0
  - - - - - - - - - - - - - - - - - - - -
--
--- Stop Module: seward at Fri May  5 16:18:24 2023 /rc=_RC_ALL_IS_WELL_ ---
*** files: scf.GssOrb scf.guessorb.h5 scf.guessorb.molden xmldump
    saved to directory /home/marlenne/thymine/Thymine/MOLCAS/3.Ground_State/1.GS_non-planar/try2/orbs
--- Module seward spent 2 seconds ---

*** symbolic link created: INPORB -> scf.ScfOrb
--- Start Module: scf at Fri May  5 16:18:24 2023 ---
 
()()()()()()()()()()()()()()()()()()()()()()()()()()()()()()()()()()()()()()()()()()()()()()()()()()

                                                &SCF

                                   only a single process is used
                       available to each process: 4.0 GB of memory, 1 thread?
                                             pid: 14501
()()()()()()()()()()()()()()()()()()()()()()()()()()()()()()()()()()()()()()()()()()()()()()()()()()
 
++    Input section:
      --------------
 
      Header of the integral files:
      
       Integrals generated by Gateway/Seward, Fri May  5 16:18:22 2023
 
 
      Cartesian coordinates in Angstrom:
      -----------------------------------------------------
      No.  Label        X            Y            Z        
      -----------------------------------------------------
       1   N1        -1.19785239  -0.95476966  -0.10201976
       2   C2        -1.23910279   0.41758392   0.08270217
       3   N3         0.02637587   0.98303711   0.09107635
       4   C4         1.26895846   0.35021984  -0.05901097
       5   C5         1.18804469  -1.09786196  -0.24736035
       6   C6        -0.03456241  -1.67950700  -0.25978335
       7   O7        -2.27754267   1.05106861   0.22165909
       8   O8         2.31319816   0.99895495  -0.02818040
       9   H9        -0.16862003  -2.74443151  -0.39435117
      10   H10        0.05153683   1.98604444   0.22283222
      11   H11       -2.09755889  -1.40848668  -0.11460824
      12   C12        2.47068479  -1.84846356  -0.41508457
      13   H13        3.01881668  -1.47781396  -1.28022088
      14   H14        3.11130548  -1.70742922   0.45439107
      15   H15        2.28475330  -2.91313134  -0.54612822
      -----------------------------------------------------
      Nuclear repulsion energy =  438.46157139
--
 
++    Orbital specifications:
      -----------------------
 
      Symmetry species               1
                                     a
      Frozen orbitals                0
      Occupied orbitals             33
      Secondary orbitals           132
      Deleted orbitals               0
      Total number of orbitals     165
      Number of basis functions    165
--
 
      Molecular charge                           0.000
 
++    Optimization specifications:
      ----------------------------
 
      SCF Algorithm: LK-RI/DF
      The actual AO density is used
      Number of density matrices in core                5
      Maximum number of NDDO SCF iterations           400
      Maximum number of HF SCF iterations             400
      Threshold for SCF energy change            0.10E-08
      Threshold for density matrix               0.10E-03
      Threshold for Fock matrix                  0.15E-03
      Threshold for linear dependence            0.10E-08
      Threshold at which DIIS is turned on       0.15E+00
      Threshold at which QNR/C2DIIS is turned on 0.75E-01
      Threshold for Norm(delta) (QNR/C2DIIS)     0.20E-04
      DIIS extrapolation of the SCF procedure
      All orbitals punched on: SCFORB
--
 
      Input vectors read from INPORB
      Orbital file label: * SCF orbitals
 
 
++ Convergence information
                                   SCF        iterations: Energy and convergence statistics
 
Iter     Tot. SCF        One-elec.       Two-elec.     Energy      Max Dij or  Max Fij      DNorm      TNorm      AccCon     Time
         Energy          Energy          Energy        Change      Delta Norm                                                in Sec.
   1  -417.177084381 -1454.947914643   599.309258877   0.00E+00    0.52E+00*   0.24E+01*    0.14E+02   0.44E+03   None         1.
   2  -383.813766100 -1434.503840488   612.228503003   0.33E+02*   0.47E+00*   0.59E+00*    0.42E+02   0.43E+03   EDIIS        1.
   3  -438.789944257 -1510.168060387   632.916544746  -0.55E+02*   0.38E+00*   0.61E+00*    0.21E+02   0.45E+03   EDIIS        1.
   4  -435.371677723 -1454.408573473   580.575324365   0.34E+01*   0.26E+00*   0.95E-01*    0.31E+02   0.43E+03   EDIIS        1.
   5  -450.275875984 -1482.212960242   593.475512873  -0.15E+02*   0.82E+00*   0.19E+00*    0.96E+01   0.43E+03   EDIIS        1.
   6  -450.190842933 -1487.732068227   599.079653909   0.85E-01*   0.67E-01*   0.19E+00*    0.11E+02   0.44E+03   EDIIS        1.
   7  -451.501127245 -1484.619099929   594.656401299  -0.13E+01*   0.45E-01*   0.19E-01*    0.95E+01   0.44E+03   c2DIIS       1.
   8  -451.514624015 -1485.056566755   595.080371355  -0.13E-01*   0.32E-01*   0.11E-01*    0.95E+01   0.44E+03   c2DIIS       1.
   9  -451.516341494 -1484.955329950   594.977417071  -0.17E-02*   0.31E-01*   0.68E-02*    0.95E+01   0.44E+03   QNRc2DIIS    1.
  10  -451.517022427 -1485.025245661   595.046651849  -0.68E-03*   0.12E-01*   0.40E-02*    0.95E+01   0.44E+03   QNRc2DIIS    1.
  11  -451.517574409 -1484.994695187   595.015549392  -0.55E-03*   0.33E-02*   0.44E-03*    0.95E+01   0.44E+03   QNRc2DIIS    1.
  12  -451.517586527 -1484.999361395   595.020203483  -0.12E-04*   0.17E-02*   0.32E-03*    0.95E+01   0.44E+03   QNRc2DIIS    1.
  13  -451.517591590 -1484.997445650   595.018282675  -0.51E-05*   0.39E-03*   0.67E-04     0.95E+01   0.44E+03   QNRc2DIIS    1.
  14  -451.517592093 -1484.997509539   595.018346061  -0.50E-06*   0.22E-03*   0.45E-04     0.95E+01   0.44E+03   QNRc2DIIS    1.
  15  -451.517592185 -1484.997495328   595.018331759  -0.91E-07*   0.15E-03*   0.18E-04     0.95E+01   0.44E+03   QNRc2DIIS    1.
  16  -451.517592207 -1484.997532354   595.018368763  -0.22E-07*   0.37E-04*   0.65E-05     0.95E+01   0.44E+03   QNRc2DIIS    1.
  17  -451.517592221 -1484.997457465   595.018293858  -0.15E-07*   0.15E-04    0.47E-05     0.95E+01   0.44E+03   QNRc2DIIS    1.
  18  -451.517592222 -1484.997484306   595.018320699  -0.11E-08*   0.37E-05    0.65E-06     0.95E+01   0.44E+03   QNRc2DIIS    1.
  19  -451.517592234 -1484.997482914   595.018319295  -0.12E-07*   0.20E-05    0.29E-06     0.95E+01   0.44E+03   QNRc2DIIS    1.
  20  -451.517592233 -1484.997483476   595.018319858   0.16E-08*   0.13E-05    0.18E-06     0.95E+01   0.44E+03   QNRc2DIIS    1.
  21  -451.517592233 -1484.997485074   595.018321456  -0.16E-09    0.24E-06    0.30E-07     0.95E+01   0.44E+03   QNRc2DIIS    1.
 
       Convergence after 21 Macro Iterations
--
 
 *****************************************************************************************************************************
 *                                                                                                                           *
 *                                             SCF/KS-DFT Program, Final results                                             *
 *                                                                                                                           *
 *                                                                                                                           *
 *                                                                                                                           *
 *                                                       Final Results                                                       *
 *                                                                                                                           *
 *****************************************************************************************************************************
 
::    Total SCF energy                               -451.5175922330
      One-electron energy                           -1484.9974850742
      Two-electron energy                             595.0183214562
      Nuclear repulsion energy                        438.4615713851
      Kinetic energy (interpolated)                   450.1927988203
      Virial theorem                                    1.0029427246
      Total spin, S(S+1)                                0.0000000000
      Total spin, S                                     0.0000000000
      Max non-diagonal density matrix element           0.0000002240
      Max non-diagonal Fock matrix element              0.0000000193
 
 
      All orbitals with orbital energies smaller than  E(LUMO)+0.5 are printed
 
++    Molecular orbitals:
      -------------------
 
      Title: SCF orbitals

      Molecular orbitals for symmetry species 1: a  
 
          Orbital            1         2         3         4         5         6         7         8         9        10    
          Energy          -20.5480  -20.5468  -15.6430  -15.6290  -11.4190  -11.3804  -11.3315  -11.2610  -11.2377   -1.4240
          Occ. No.          2.0000    2.0000    2.0000    2.0000    2.0000    2.0000    2.0000    2.0000    2.0000    2.0000
 
        1 N1     1s        -0.0000   -0.0000    0.9950    0.0008   -0.0002    0.0000   -0.0002    0.0001   -0.0000   -0.0703
        2 N1     2s        -0.0000   -0.0000    0.0255    0.0000    0.0004    0.0002    0.0004    0.0001   -0.0002    0.1420
        3 N1     *s         0.0003    0.0002   -0.0047   -0.0008   -0.0002   -0.0020   -0.0010   -0.0023    0.0014    0.1585
        4 N1     2px        0.0000    0.0000    0.0002    0.0000    0.0000   -0.0000    0.0002    0.0000   -0.0000    0.0054
        5 N1     *px        0.0001   -0.0000   -0.0013   -0.0008   -0.0002    0.0001   -0.0029   -0.0011    0.0006    0.0182
        6 N1     2py       -0.0000    0.0000    0.0001   -0.0001    0.0001    0.0000   -0.0001   -0.0000   -0.0000    0.0393
        7 N1     *py        0.0001    0.0001   -0.0009    0.0000   -0.0013   -0.0016    0.0014   -0.0003    0.0000    0.0273
        8 N1     2pz       -0.0000    0.0000   -0.0000   -0.0000    0.0000    0.0000   -0.0000   -0.0000    0.0000    0.0050
        9 N1     *pz        0.0000    0.0000   -0.0000    0.0000   -0.0002   -0.0002    0.0003    0.0000   -0.0000    0.0027
       10 N1     *200      -0.0000   -0.0000   -0.0019    0.0000   -0.0002    0.0000   -0.0004    0.0002   -0.0000    0.0003
       11 N1     *110       0.0001    0.0000    0.0000   -0.0000    0.0000   -0.0001    0.0004    0.0000   -0.0000   -0.0030
       12 N1     *101       0.0000    0.0000    0.0000   -0.0000    0.0000   -0.0000    0.0001   -0.0000   -0.0000   -0.0007
       13 N1     *020      -0.0000   -0.0000   -0.0020    0.0000   -0.0004    0.0000   -0.0002    0.0001   -0.0000    0.0056
       14 N1     *011       0.0000   -0.0000   -0.0000    0.0000   -0.0001   -0.0000   -0.0001    0.0000    0.0000    0.0024
       15 N1     *002      -0.0000    0.0000   -0.0019   -0.0000    0.0001    0.0000    0.0001    0.0001   -0.0001   -0.0027
       16 C2     1s        -0.0000    0.0000    0.0000    0.0000    0.9959    0.0002    0.0001    0.0000   -0.0000   -0.1248
       17 C2     2s         0.0005    0.0000    0.0002    0.0002    0.0258   -0.0005   -0.0004   -0.0000   -0.0000    0.2504
       18 C2     *s        -0.0007    0.0000    0.0017    0.0017   -0.0023   -0.0009    0.0007    0.0007   -0.0000    0.0178
       19 C2     2px        0.0000    0.0000    0.0000    0.0002    0.0006   -0.0002    0.0000    0.0000   -0.0000   -0.0664
       20 C2     *px        0.0004   -0.0002    0.0008    0.0021   -0.0034    0.0013    0.0046    0.0012   -0.0002    0.0028
       21 C2     2py       -0.0000    0.0000   -0.0003    0.0001   -0.0004   -0.0001    0.0000   -0.0000    0.0000    0.0409
       22 C2     *py       -0.0002    0.0003   -0.0019    0.0001    0.0022   -0.0040   -0.0000   -0.0007    0.0004   -0.0001
       23 C2     2pz       -0.0000    0.0000   -0.0000   -0.0000   -0.0001   -0.0000    0.0000   -0.0000    0.0000    0.0089
       24 C2     *pz       -0.0000    0.0000   -0.0003   -0.0001    0.0005   -0.0006   -0.0002   -0.0002    0.0001   -0.0001
       25 C2     *200      -0.0004    0.0000   -0.0000   -0.0001   -0.0003   -0.0001    0.0000   -0.0000   -0.0000    0.0082
       26 C2     *110       0.0004    0.0000   -0.0000   -0.0001   -0.0003    0.0001   -0.0000   -0.0000    0.0000   -0.0139
       27 C2     *101       0.0001    0.0000   -0.0000   -0.0000   -0.0001    0.0000   -0.0000   -0.0000    0.0000   -0.0039
       28 C2     *020      -0.0002    0.0000   -0.0001   -0.0001   -0.0005   -0.0001    0.0001   -0.0000    0.0000    0.0007
       29 C2     *011      -0.0001   -0.0000   -0.0000   -0.0000    0.0002    0.0000    0.0000    0.0000    0.0000    0.0038
       30 C2     *002      -0.0000    0.0000   -0.0000   -0.0000   -0.0013   -0.0001   -0.0001   -0.0000   -0.0000   -0.0107
       31 N3     1s        -0.0000   -0.0000   -0.0007    0.9950   -0.0003   -0.0003    0.0001    0.0000   -0.0001   -0.0759
       32 N3     2s        -0.0000   -0.0000    0.0000    0.0255    0.0003    0.0003    0.0003    0.0001   -0.0002    0.1538
       33 N3     *s         0.0003    0.0002   -0.0009   -0.0053    0.0001    0.0013   -0.0034   -0.0017    0.0020    0.1673
       34 N3     2px        0.0000   -0.0000    0.0001   -0.0001   -0.0001    0.0002   -0.0000   -0.0000   -0.0000   -0.0235
       35 N3     *px       -0.0001    0.0002   -0.0003    0.0000    0.0016   -0.0035    0.0015   -0.0000    0.0011   -0.0092
       36 N3     2py        0.0000    0.0000    0.0000   -0.0002   -0.0001   -0.0000   -0.0000   -0.0000    0.0000   -0.0224
       37 N3     *py       -0.0001   -0.0000    0.0007    0.0016    0.0007   -0.0003    0.0013    0.0007   -0.0006   -0.0270
       38 N3     2pz        0.0000    0.0000   -0.0000   -0.0000   -0.0000   -0.0000    0.0000   -0.0000    0.0000   -0.0018
       39 N3     *pz       -0.0000   -0.0000    0.0001    0.0002    0.0000    0.0002    0.0001    0.0001   -0.0001   -0.0031
       40 N3     *200      -0.0001   -0.0001    0.0000   -0.0020   -0.0004   -0.0004    0.0001    0.0001   -0.0000    0.0073
       41 N3     *110       0.0001   -0.0001   -0.0000    0.0000   -0.0002    0.0003   -0.0000   -0.0000   -0.0000    0.0017
       42 N3     *101       0.0000   -0.0000   -0.0000    0.0000    0.0000    0.0001   -0.0000   -0.0000   -0.0000   -0.0009
       43 N3     *020       0.0000    0.0000    0.0000   -0.0019   -0.0002   -0.0002    0.0001    0.0001   -0.0001   -0.0002
       44 N3     *011       0.0000    0.0000    0.0000   -0.0000   -0.0001   -0.0001    0.0000    0.0000    0.0000    0.0006
       45 N3     *002      -0.0000   -0.0000   -0.0000   -0.0019    0.0000    0.0000    0.0001    0.0000   -0.0001   -0.0029
       46 C4     1s         0.0000   -0.0000   -0.0000   -0.0000   -0.0005    0.9959   -0.0001   -0.0036    0.0001   -0.0537
       47 C4     2s         0.0000    0.0005   -0.0000    0.0001   -0.0006    0.0265   -0.0003   -0.0001   -0.0002    0.1091
       48 C4     *s        -0.0002   -0.0005    0.0014    0.0020    0.0019   -0.0073    0.0015    0.0052   -0.0009   -0.0030
       49 C4     2px       -0.0000   -0.0000   -0.0000   -0.0002    0.0001   -0.0006   -0.0000   -0.0000   -0.0001    0.0074
       50 C4     *px        0.0003   -0.0004   -0.0007   -0.0026   -0.0034    0.0038   -0.0004   -0.0006    0.0015    0.0202
       51 C4     2py        0.0000   -0.0000    0.0000    0.0001   -0.0000    0.0005    0.0000    0.0001    0.0000    0.0313
       52 C4     *py        0.0003   -0.0005   -0.0007   -0.0001   -0.0039    0.0072   -0.0017   -0.0020   -0.0012    0.0043
       53 C4     2pz        0.0000    0.0000    0.0000    0.0000   -0.0000    0.0001    0.0000    0.0000    0.0000    0.0038
       54 C4     *pz        0.0000   -0.0000   -0.0001    0.0001   -0.0003    0.0008   -0.0002   -0.0002   -0.0002   -0.0005
       55 C4     *200       0.0000   -0.0003    0.0000   -0.0000   -0.0000   -0.0003    0.0000   -0.0002   -0.0000    0.0052
       56 C4     *110      -0.0000   -0.0004    0.0000    0.0000   -0.0000    0.0003    0.0001   -0.0000    0.0001    0.0042
       57 C4     *101      -0.0000   -0.0000   -0.0000    0.0000   -0.0000   -0.0001    0.0000    0.0000    0.0000   -0.0004
       58 C4     *020       0.0000   -0.0001    0.0000   -0.0001   -0.0000   -0.0006    0.0001   -0.0004    0.0000   -0.0006
       59 C4     *011       0.0000   -0.0000    0.0000   -0.0000    0.0000    0.0002    0.0000   -0.0001    0.0000    0.0007
       60 C4     *002       0.0000   -0.0000   -0.0000   -0.0001   -0.0001   -0.0012   -0.0000   -0.0001   -0.0000   -0.0041
       61 C5     1s        -0.0000   -0.0000    0.0000    0.0000    0.0000    0.0031    0.0103    0.9955   -0.0145   -0.0174
       62 C5     2s        -0.0000   -0.0000    0.0001    0.0001    0.0004    0.0000    0.0001    0.0281   -0.0003    0.0300
       63 C5     *s         0.0006   -0.0001   -0.0021   -0.0016   -0.0069    0.0058    0.0031   -0.0155    0.0041    0.0598
       64 C5     2px       -0.0000   -0.0000    0.0000   -0.0000    0.0000    0.0001    0.0001   -0.0003    0.0000   -0.0100
       65 C5     *px       -0.0003    0.0001    0.0013    0.0016    0.0037   -0.0017   -0.0016    0.0018    0.0008   -0.0266
       66 C5     2py        0.0000   -0.0000    0.0000   -0.0000   -0.0000   -0.0001    0.0001    0.0002    0.0001    0.0132
       67 C5     *py        0.0002   -0.0001   -0.0010   -0.0003   -0.0020    0.0045   -0.0029   -0.0011   -0.0015    0.0116
       68 C5     2pz        0.0000   -0.0000    0.0000   -0.0000   -0.0000   -0.0000    0.0000    0.0000    0.0000    0.0023
       69 C5     *pz        0.0000   -0.0000   -0.0002   -0.0001   -0.0005    0.0007   -0.0003   -0.0002   -0.0002    0.0030
       70 C5     *200       0.0000   -0.0000   -0.0000   -0.0000   -0.0001   -0.0002   -0.0002   -0.0008   -0.0002    0.0010
       71 C5     *110      -0.0000   -0.0001    0.0000    0.0000    0.0000   -0.0000    0.0000    0.0001    0.0002    0.0009
       72 C5     *101      -0.0000   -0.0000    0.0000    0.0000    0.0000    0.0000    0.0000   -0.0000    0.0000   -0.0001
       73 C5     *020      -0.0000    0.0000    0.0000   -0.0000   -0.0000   -0.0003   -0.0002   -0.0010   -0.0001    0.0019
       74 C5     *011       0.0000    0.0000    0.0000   -0.0000   -0.0000   -0.0000   -0.0000    0.0001   -0.0000    0.0007
       75 C5     *002      -0.0000   -0.0000    0.0000    0.0000    0.0000   -0.0001   -0.0000   -0.0013   -0.0001   -0.0010
       76 C6     1s         0.0000    0.0000    0.0000    0.0000   -0.0002   -0.0000    0.9957   -0.0109    0.0002   -0.0254
       77 C6     2s         0.0000    0.0000    0.0002   -0.0000   -0.0006   -0.0002    0.0270   -0.0005   -0.0001    0.0533
       78 C6     *s        -0.0004    0.0000    0.0027    0.0017    0.0041   -0.0007   -0.0090    0.0064   -0.0012   -0.0245
       79 C6     2px       -0.0000    0.0000   -0.0002   -0.0000    0.0001   -0.0001   -0.0010   -0.0002   -0.0001   -0.0186
       80 C6     *px       -0.0001   -0.0000   -0.0004    0.0003    0.0017    0.0009   -0.0031    0.0014    0.0002   -0.0078
       81 C6     2py        0.0000    0.0000    0.0001    0.0000   -0.0002   -0.0001    0.0006   -0.0001    0.0000    0.0245
       82 C6     *py       -0.0003    0.0000    0.0018    0.0007    0.0040   -0.0003    0.0004    0.0022   -0.0007   -0.0360
       83 C6     2pz        0.0000   -0.0000    0.0000    0.0000   -0.0000   -0.0000    0.0001    0.0000    0.0000    0.0042
       84 C6     *pz       -0.0000    0.0000    0.0003    0.0001    0.0004   -0.0001    0.0002    0.0002   -0.0001   -0.0044
       85 C6     *200       0.0000    0.0000   -0.0001    0.0000    0.0000    0.0000   -0.0007   -0.0002   -0.0000    0.0015
       86 C6     *110      -0.0000   -0.0000    0.0001    0.0000   -0.0000    0.0000   -0.0001   -0.0001    0.0001   -0.0036
       87 C6     *101      -0.0000   -0.0000    0.0000   -0.0000   -0.0000   -0.0000   -0.0001    0.0000    0.0000   -0.0008
       88 C6     *020      -0.0000   -0.0000   -0.0000    0.0000    0.0001    0.0000   -0.0008   -0.0002    0.0000    0.0005
       89 C6     *011      -0.0000   -0.0000    0.0000    0.0000    0.0000    0.0000    0.0002   -0.0000    0.0000    0.0006
       90 C6     *002       0.0000    0.0000   -0.0001   -0.0000   -0.0001   -0.0000   -0.0014   -0.0000   -0.0000   -0.0012
       91 O7     1s         0.9947    0.0000   -0.0000   -0.0000   -0.0002   -0.0001   -0.0001   -0.0000    0.0000   -0.1388
       92 O7     2s         0.0210    0.0001   -0.0002   -0.0002    0.0009   -0.0005   -0.0005   -0.0002    0.0000    0.3030
       93 O7     *s         0.0045   -0.0003    0.0011    0.0011   -0.0052    0.0036    0.0035    0.0011   -0.0002    0.2807
       94 O7     2px        0.0014    0.0000   -0.0000   -0.0000    0.0003   -0.0000   -0.0000   -0.0000    0.0000    0.0896
       95 O7     *px       -0.0000   -0.0001    0.0003    0.0000   -0.0019    0.0010    0.0004    0.0002   -0.0000    0.0398
       96 O7     2py       -0.0009   -0.0000    0.0000    0.0000   -0.0002   -0.0000    0.0000    0.0000    0.0000   -0.0550
       97 O7     *py        0.0000    0.0000    0.0002   -0.0004    0.0012   -0.0001   -0.0007   -0.0001   -0.0000   -0.0247
       98 O7     2pz       -0.0002   -0.0000    0.0000    0.0000   -0.0000   -0.0000    0.0000    0.0000    0.0000   -0.0120
       99 O7     *pz        0.0000    0.0000    0.0000   -0.0001    0.0003   -0.0001   -0.0001   -0.0000   -0.0000   -0.0054
      100 O7     *200      -0.0021    0.0000   -0.0000   -0.0001    0.0002   -0.0001   -0.0002   -0.0001    0.0000    0.0057
      101 O7     *110      -0.0002    0.0000    0.0000   -0.0000    0.0001   -0.0000   -0.0000   -0.0000   -0.0000   -0.0090
      102 O7     *101      -0.0000    0.0000    0.0000   -0.0000    0.0000   -0.0000    0.0000   -0.0000   -0.0000   -0.0019
      103 O7     *020      -0.0022    0.0000   -0.0001   -0.0000    0.0002   -0.0002   -0.0002   -0.0001    0.0000    0.0011
      104 O7     *011       0.0000   -0.0000   -0.0000    0.0000   -0.0000   -0.0000   -0.0000    0.0000    0.0000    0.0011
      105 O7     *002      -0.0023    0.0000   -0.0001   -0.0001    0.0003   -0.0002   -0.0002   -0.0001   -0.0000   -0.0013
      106 O8     1s        -0.0000    0.9947   -0.0000   -0.0000   -0.0001   -0.0001   -0.0000    0.0000   -0.0000   -0.0547
      107 O8     2s         0.0001    0.0210   -0.0001   -0.0002   -0.0006    0.0011   -0.0001   -0.0000   -0.0001    0.1220
      108 O8     *s        -0.0004    0.0046    0.0004    0.0014    0.0041   -0.0065    0.0009   -0.0002    0.0002    0.0982
      109 O8     2px       -0.0000   -0.0013    0.0000    0.0000    0.0000   -0.0003    0.0000   -0.0000    0.0000   -0.0374
      110 O8     *px        0.0001    0.0000   -0.0001   -0.0001   -0.0009    0.0025   -0.0002   -0.0000   -0.0002   -0.0157
      111 O8     2py       -0.0000   -0.0008   -0.0000    0.0000   -0.0000   -0.0001    0.0000    0.0000    0.0000   -0.0200
      112 O8     *py        0.0000    0.0000    0.0000   -0.0004   -0.0003    0.0007    0.0000    0.0002    0.0001   -0.0061
[...]
       97 O7     *py        0.0517    0.0197   -0.1453    0.1624   -0.2455   -0.2802   -0.0216    0.4899   -0.1295    0.2710
       98 O7     2pz        0.0020   -0.0829   -0.0138    0.0113   -0.0103   -0.0034   -0.0019    0.0092   -0.0050    0.0127
       99 O7     *pz        0.0085   -0.1472   -0.0289    0.0259   -0.0661   -0.0625   -0.0057    0.0925   -0.0126    0.0271
      100 O7     *200       0.0017    0.0002    0.0088   -0.0026   -0.0080   -0.0038    0.0079    0.0033   -0.0014   -0.0109
      101 O7     *110       0.0025   -0.0007   -0.0014    0.0022   -0.0248   -0.0290    0.0039    0.0239    0.0098   -0.0017
      102 O7     *101       0.0005    0.0043   -0.0020    0.0008   -0.0051   -0.0060   -0.0012    0.0070    0.0017    0.0008
      103 O7     *020       0.0022    0.0004   -0.0008    0.0064   -0.0100   -0.0239    0.0020    0.0192   -0.0135   -0.0009
      104 O7     *011      -0.0004   -0.0032    0.0020    0.0010    0.0054    0.0015    0.0025   -0.0067   -0.0048    0.0001
      105 O7     *002       0.0031   -0.0007   -0.0078    0.0023   -0.0250   -0.0236   -0.0081    0.0392    0.0023   -0.0011
      106 O8     1s         0.0126   -0.0000   -0.0010   -0.0192   -0.0482    0.0721    0.0704   -0.0136   -0.0367    0.0321
      107 O8     2s        -0.0347    0.0001   -0.0027    0.0330    0.0558   -0.0016   -0.0233   -0.0065   -0.0411   -0.0366
      108 O8     *s        -0.1303    0.0003    0.0092    0.2430    0.8141   -1.7876   -1.6700    0.2894    1.3250   -0.4543
      109 O8     2px        0.0040   -0.0062   -0.0344   -0.0881   -0.1404    0.0381    0.0648   -0.0554    0.0573   -0.0045
      110 O8     *px        0.0282   -0.0131   -0.0568   -0.1487   -0.4332    0.5665    0.5993   -0.3213   -0.2124    0.2648
      111 O8     2py        0.0427    0.0155    0.0617   -0.0270   -0.0060    0.0116    0.0221    0.0529   -0.0497    0.1259
      112 O8     *py        0.0444    0.0325    0.0595   -0.1062   -0.1108    0.2988    0.2420    0.0921   -0.3921    0.3500
      113 O8     2pz        0.0054   -0.1179    0.0099    0.0011    0.0066   -0.0005   -0.0005    0.0099   -0.0097    0.0170
      114 O8     *pz        0.0043   -0.2458    0.0106   -0.0061    0.0082    0.0096    0.0004    0.0293   -0.0408    0.0325
      115 O8     *200      -0.0019   -0.0007   -0.0026    0.0018   -0.0047    0.0061    0.0029    0.0002   -0.0105   -0.0171
      116 O8     *110      -0.0037    0.0017    0.0050   -0.0012    0.0144   -0.0299   -0.0180    0.0092    0.0183   -0.0017
      117 O8     *101      -0.0007   -0.0132    0.0009   -0.0007    0.0008   -0.0013    0.0002   -0.0005    0.0012    0.0036
      118 O8     *020       0.0027    0.0001    0.0005   -0.0024   -0.0026    0.0266    0.0214    0.0023   -0.0117    0.0115
      119 O8     *011       0.0018   -0.0005   -0.0001    0.0004    0.0026    0.0003   -0.0007    0.0044    0.0017   -0.0019
      120 O8     *002      -0.0032    0.0006   -0.0002   -0.0035   -0.0153    0.0315    0.0277   -0.0159   -0.0216    0.0188
      121 H9     1s        -0.0349   -0.0000    0.0484    0.0231    0.0262   -0.0079    0.0504   -0.0093    0.1260   -0.1460
      122 H9     *s        -1.0313    0.0013   -0.6470   -0.4305   -0.2142   -0.3543    0.5682    0.4105    0.4169    1.0719
      123 H9     *px        0.0043    0.0006    0.0112   -0.0113   -0.0016   -0.0021   -0.0045   -0.0007    0.0086    0.0107
      124 H9     *py        0.0000   -0.0015   -0.0053   -0.0027   -0.0046   -0.0021   -0.0030    0.0009   -0.0037    0.0152
      125 H9     *pz       -0.0002    0.0110   -0.0013    0.0002   -0.0005   -0.0002   -0.0002    0.0002   -0.0010    0.0014
      126 H10    1s        -0.0131    0.0000    0.0275    0.0080    0.0741    0.0167   -0.1035   -0.0285   -0.0128    0.0133
      127 H10    *s         0.2855   -0.0001   -0.0325   -0.0460    0.2407   -0.1859    0.4930    0.2702   -0.2957   -0.1966
      128 H10    *px        0.0046   -0.0005   -0.0050   -0.0074    0.0070    0.0296    0.0109    0.0056    0.0111    0.0032
      129 H10    *py       -0.0029    0.0014    0.0039    0.0009    0.0095    0.0020   -0.0182   -0.0072    0.0016    0.0013
      130 H10    *pz       -0.0006   -0.0102    0.0008    0.0005    0.0009   -0.0013   -0.0030   -0.0013   -0.0004   -0.0000
      131 H11    1s         0.0267   -0.0001    0.0722    0.0015    0.0395    0.0637    0.0165    0.0071    0.1333   -0.0558
      132 H11    *s         0.3126   -0.0013    0.6183   -0.4180   -0.0168   -0.2242   -0.0328    0.0243   -0.3624   -0.4054
      133 H11    *px       -0.0015   -0.0003   -0.0114   -0.0061   -0.0021   -0.0039   -0.0129   -0.0047   -0.0242   -0.0030
      134 H11    *py        0.0044    0.0009    0.0129    0.0093   -0.0094   -0.0197    0.0177    0.0148    0.0081    0.0068
      135 H11    *pz        0.0007   -0.0066    0.0023    0.0016   -0.0011   -0.0024    0.0030    0.0022    0.0024    0.0011
      136 C12    1s         0.0270   -0.0000   -0.0447   -0.0372    0.0348   -0.0429    0.0082   -0.0076    0.0049   -0.0014
      137 C12    2s        -0.0263    0.0001   -0.0468    0.0283   -0.0054   -0.0736    0.0119   -0.0993    0.0626    0.0532
      138 C12    *s        -0.3832   -0.0006    1.5172    0.7585   -0.8498    1.8894   -0.1695    0.9343   -1.2266   -0.9352
      139 C12    2px        0.1385    0.0133   -0.0124   -0.1971   -0.0140    0.0295   -0.0041    0.0932   -0.0253    0.0377
      140 C12    *px        0.6704    0.0657   -1.0115   -1.3431    0.3460   -1.1534    0.1959   -0.7266    0.2944    0.6682
      141 C12    2py        0.2257   -0.0336    0.0412    0.0913   -0.0214   -0.0809   -0.1343   -0.1218    0.0428   -0.0128
      142 C12    *py        1.0064   -0.1640    0.4363    0.6126   -0.4703    0.4940   -0.7966   -0.3488   -1.1371   -0.2041
      143 C12    2pz        0.0227    0.2526    0.0064    0.0224   -0.0021   -0.0123   -0.0176   -0.0210    0.0071   -0.0036
      144 C12    *pz        0.0987    1.2333    0.1130    0.1517   -0.0810    0.1268   -0.1162   -0.0077   -0.1667   -0.0624
      145 C12    *200      -0.0017    0.0009    0.0042   -0.0136   -0.0008   -0.0098   -0.0079   -0.0045   -0.0035    0.0058
      146 C12    *110      -0.0036   -0.0029    0.0173    0.0072   -0.0106    0.0045   -0.0189    0.0036   -0.0091    0.0109
      147 C12    *101      -0.0008    0.0166    0.0019    0.0029   -0.0013    0.0011   -0.0025    0.0005   -0.0005    0.0007
      148 C12    *020       0.0098    0.0016   -0.0074    0.0097    0.0023    0.0107    0.0171    0.0030   -0.0025   -0.0061
      149 C12    *011       0.0040   -0.0116   -0.0029    0.0008    0.0012    0.0040    0.0076    0.0017   -0.0010   -0.0019
      150 C12    *002      -0.0044   -0.0025   -0.0003    0.0053   -0.0002   -0.0049   -0.0072   -0.0040    0.0030   -0.0011
      151 H13    1s        -0.0397   -0.0036    0.0436    0.0197   -0.0174    0.0026   -0.0659    0.0223   -0.0032    0.0052
      152 H13    *s        -0.6610    1.2230   -0.0055    0.3750    0.1942   -0.0137    0.0882    0.1557    0.2071   -0.1633
      153 H13    *px        0.0039   -0.0054    0.0032   -0.0089   -0.0006   -0.0026   -0.0044    0.0015   -0.0057    0.0009
      154 H13    *py        0.0052    0.0029    0.0015    0.0051   -0.0016    0.0044    0.0023    0.0003   -0.0034   -0.0003
      155 H13    *pz        0.0001    0.0052    0.0019   -0.0004   -0.0021    0.0033    0.0017    0.0006    0.0001    0.0041
      156 H14    1s        -0.0398    0.0036    0.0436    0.0197   -0.0173    0.0026   -0.0659    0.0224   -0.0032    0.0053
      157 H14    *s        -0.6635   -1.2221   -0.0083    0.3769    0.1947   -0.0137    0.0884    0.1556    0.2076   -0.1639
      158 H14    *px        0.0039    0.0059    0.0030   -0.0087   -0.0004   -0.0029   -0.0045    0.0015   -0.0058    0.0004
      159 H14    *py        0.0051   -0.0041    0.0020    0.0047   -0.0021    0.0051    0.0026    0.0005   -0.0034    0.0008
      160 H14    *pz        0.0008    0.0036   -0.0017    0.0026    0.0017   -0.0018   -0.0006   -0.0007   -0.0004   -0.0041
      161 H15    1s         0.0748    0.0001   -0.0143    0.0772   -0.0140    0.0905    0.0540    0.0167   -0.0545   -0.0389
      162 H15    *s         1.7388   -0.0008   -0.1846    0.2945   -0.0706   -0.2684   -0.6942   -0.7534   -0.5317   -0.0570
      163 H15    *px        0.0043    0.0004   -0.0113    0.0002    0.0058    0.0026    0.0136   -0.0030    0.0033   -0.0085
      164 H15    *py        0.0030   -0.0011    0.0011   -0.0010   -0.0030   -0.0024   -0.0054   -0.0040   -0.0026    0.0072
      165 H15    *pz        0.0002    0.0081    0.0007   -0.0002   -0.0007   -0.0005   -0.0014   -0.0004   -0.0005    0.0014
--
 
 
++    Molecular charges:
      ------------------
 
      Mulliken charges per centre and basis function type
      ---------------------------------------------------
 
                N1      C2      N3      C4      C5      C6      O7      O8      H9      H10     H11     C12   
      1s       1.9955  1.9968  1.9956  1.9970  1.9966  1.9966  1.9956  1.9956  0.5302  0.4907  0.4958  1.9967
      2s       0.7355  0.6947  0.7392  0.6977  0.6534  0.6853  0.9002  0.9030  0.0000  0.0000  0.0000  0.6373
      2px      0.7857  0.7133  0.7808  0.6770  0.7343  0.7173  0.9242  0.9355  0.0000  0.0000  0.0000  0.6737
      2pz      0.9650  0.4421  0.9508  0.4238  0.5986  0.4987  0.8876  0.8495  0.0000  0.0000  0.0000  0.6997
      2py      0.7799  0.6696  0.7914  0.7374  0.6987  0.7207  1.0299  1.0465  0.0000  0.0000  0.0000  0.6810
      *s       0.8679  0.1054  0.8923  0.2216  0.5085  0.3608  0.9861  0.9908  0.2605  0.1292  0.1300  0.6121
      *px      0.4613 -0.0350  0.3918 -0.0555  0.2514  0.1030  0.5395  0.5451  0.0012  0.0023  0.0152  0.2723
      *pz      0.7486  0.2267  0.7608  0.2514  0.5062  0.3918  0.6645  0.6501  0.0022  0.0069  0.0073  0.3859
      *py      0.4130  0.0122  0.5049  0.0903  0.2103  0.2543  0.6532  0.6562  0.0103  0.0180  0.0053  0.3123
      *200     0.0154  0.0486  0.0227  0.0415  0.0258  0.0240  0.0108  0.0109  0.0000  0.0000  0.0000  0.0063
      *110     0.0103  0.0362  0.0101  0.0356  0.0122  0.0201  0.0098  0.0094  0.0000  0.0000  0.0000  0.0080
      *101     0.0032  0.0285  0.0038  0.0264  0.0096  0.0178  0.0088  0.0089  0.0000  0.0000  0.0000  0.0132
      *020     0.0182  0.0367  0.0089  0.0308  0.0222  0.0175  0.0045  0.0041  0.0000  0.0000  0.0000  0.0074
      *011     0.0037  0.0206  0.0016  0.0118  0.0029  0.0040  0.0034  0.0034  0.0000  0.0000  0.0000  0.0033
      *002    -0.0158 -0.0261 -0.0160 -0.0241 -0.0164 -0.0201 -0.0005 -0.0010  0.0000  0.0000  0.0000  0.0041
      Total    7.7875  4.9701  7.8386  5.1627  6.2144  5.7917  8.6177  8.6079  0.8046  0.6470  0.6536  6.3135
 
      N-E     -0.7875  1.0299 -0.8386  0.8373 -0.2144  0.2083 -0.6177 -0.6079  0.1954  0.3530  0.3464 -0.3135
 
                H13     H14     H15   
      1s       0.5267  0.5267  0.5327
      2s       0.0000  0.0000  0.0000
      2px      0.0000  0.0000  0.0000
      2pz      0.0000  0.0000  0.0000
      2py      0.0000  0.0000  0.0000
      *s       0.3115  0.3115  0.3427
      *px      0.0038  0.0045  0.0019
      *pz      0.0065  0.0066  0.0020
      *py      0.0027  0.0019  0.0089
      *200     0.0000  0.0000  0.0000
      *110     0.0000  0.0000  0.0000
      *101     0.0000  0.0000  0.0000
      *020     0.0000  0.0000  0.0000
      *011     0.0000  0.0000  0.0000
      *002     0.0000  0.0000  0.0000
      Total    0.8512  0.8511  0.8883
 
      N-E      0.1488  0.1489  0.1117
 
      Total electronic charge=   66.000000
 
      Total            charge=   -0.000000
 
      Mulliken Bond Order analysis
      ----------------------------
      Only bonds with order larger than 0.500 are printed
 
        Atom A        Atom B        Bond Order
        N1            C2              0.972
        N1            C6              0.944
        N1            H11             0.871
        C2            N3              0.977
        C2            O7              1.812
        N3            C4              0.903
        N3            H10             0.860
        C4            C5              1.048
        C4            O8              1.792
        C5            C6              1.769
        C5            C12             0.986
        C6            H9              0.950
        C12           H13             0.960
        C12           H14             0.960
        C12           H15             0.976
 
--
 

      Expectation values of various operators
 
++    Molecular properties:
      ---------------------
 


       0-th cartesian moments: origin at (  0.00000000,  0.00000000,  0.00000000)
      ----------------------------------------------------------------------------
 Total electronic           -66.00000000
 Total nuclear               66.00000000
 Total                       -0.00000000


       1-st cartesian moments: origin at (  0.00000000,  0.00000000,  0.00000000)
      ----------------------------------------------------------------------------
 Component                             X               Y               Z
 Total electronic           -38.51859166     26.12901714     10.31033732
 Total nuclear               38.19000077    -27.99697322    -10.54104726
 Total                       -0.32859090     -1.86795607     -0.23070994
      ----------------------------------------------------------------------------
      Total                  -0.83519475     -4.74787076     -0.58640617   Debye


       2-nd cartesian moments: origin at (  0.51369637, -0.32145117, -0.14261180)
      ----------------------------------------------------------------------------
 Component                            XX              XY              XZ              YY              YZ              ZZ
 Total electronic          -692.82541161    132.14666957     51.89506858   -392.80288882    -53.31839421    -54.21936744
 Total nuclear              645.15971984   -129.59949572    -51.09353047    358.25405890     53.76191128     15.33431706
 Total                      -47.66569176      2.54717385      0.80153811    -34.54882992      0.44351707    -38.88505038



      Cartesian  2-pole moment: origin at (  0.51369637, -0.32145117, -0.14261180)
      ----------------------------------------------------------------------------
 Component                            XX              XY              XZ              YY              YZ              ZZ
 Total electronic          -469.31428347    198.22000435     77.84260287    -19.28049930    -79.97759131    488.59478277
 Total nuclear              458.36553186   -194.39924358    -76.64029571     28.00704045     80.64286692   -486.37257231
 Total                      -10.94875161      3.82076077      1.20230716      8.72654115      0.66527561      2.22221046

--
 
 
++ Statistics and timing
   ---------------------
 
  - - - - - - - - - - - - - - - - - - - - - - - - - - - - - - - - - -
     Part of the program                              CPU    fraction
  - - - - - - - - - - - - - - - - - - - - - - - - - - - - - - - - - -
  1) Input processing                         :      0.03      0.00
  2) Wave function optimization               :     15.26      0.98
       Line Search Iterations    (QNR steps)  :      0.00      0.00
    a ) calculation of the density            :      0.00      0.00
    b ) contraction with integrals            :     14.61      0.94
    c ) acceleration of convergence           :      0.01      0.00
          recursive BFGS         (QNR steps)  :      0.01      0.00
    d ) solution to Roothaan-Hall equations   :      0.19      0.01
    d') rotate MOs C with U      (QNR steps)  :      0.07      0.00
          U=exp(kap)                          :      0.04      0.00
    e') transf. Fck Mat. with C  (QNR steps)  :      0.00      0.00
    f ) other calculations                    :      0.02      0.00
  3) Final processing (generation of outputs) :      0.16      0.01
 
     T O T A L                                :     15.55
  - - - - - - - - - - - - - - - - - - - - - - - - - - - - - - - - - -
--
 
 
  Input file to MOLDEN was generated!
 
++ I/O STATISTICS
 
  I. General I/O information
  - - - - - - - - - - - - - - - - - - - - - - - - - - - - - - - - - - - - - - - - - - -
  Unit  Name          Flsize      Write/Read            MBytes           Write/Read
                      (MBytes)       Calls              In/Out           Time, sec.
  - - - - - - - - - - - - - - - - - - - - - - - - - - - - - - - - - - - - - - - - - - -
   1  RUNFILE           1.33 .    1169/   10967 .     15.6/     79.3 .       0/       0
   2  DNSMAT            1.67 .      16/       1 .      1.7/      0.1 .       0/       0
   3  DVXCDR            1.67 .      16/       1 .      1.7/      0.1 .       0/       0
   4  TWOHAM            1.67 .      16/       1 .      1.7/      0.1 .       0/       0
   5  GRADIENT          0.00 .       0/       0 .      0.0/      0.0 .       0/       0
   6  SODGRAD           0.00 .       0/       0 .      0.0/      0.0 .       0/       0
   7  SOXVEC            0.00 .       0/       0 .      0.0/      0.0 .       0/       0
   8  SODELTA           0.00 .       0/       0 .      0.0/      0.0 .       0/       0
   9  SOYVEC            0.00 .       0/       0 .      0.0/      0.0 .       0/       0
  10  ONEINT            4.50 .       2/     469 .      1.5/    182.3 .       0/       0
  11  CHRED             0.22 .       0/      46 .      0.0/      2.5 .       0/       0
  12  CHVEC1           74.73 .       0/       1 .      0.0/     74.6 .       0/       0
  13  CHORST            0.03 .       0/      12 .      0.0/      0.0 .       0/       0
  14  CHOMAP            0.01 .       0/       0 .      0.0/      0.0 .       0/       0
  15  CHODIAG           0.10 .       0/      21 .      0.0/      2.2 .       0/       0
  - - - - - - - - - - - - - - - - - - - - - - - - - - - - - - - - - - - - - - - - - - -
   *  TOTAL            85.94 .    1219/   11519 .     22.1/    341.2 .       0/       0
  - - - - - - - - - - - - - - - - - - - - - - - - - - - - - - - - - - - - - - - - - - -
 
  II. I/O Access Patterns
  - - - - - - - - - - - - - - - - - - - -
  Unit  Name               % of random
                         Write/Read calls
  - - - - - - - - - - - - - - - - - - - -
   1  RUNFILE             28.6/  11.1
   2  DNSMAT              93.8/ 100.0
   3  DVXCDR              93.8/ 100.0
   4  TWOHAM              93.8/ 100.0
   5  GRADIENT             0.0/   0.0
   6  SODGRAD              0.0/   0.0
   7  SOXVEC               0.0/   0.0
   8  SODELTA              0.0/   0.0
   9  SOYVEC               0.0/   0.0
  10  ONEINT             100.0/  18.6
  11  CHRED                0.0/  45.7
  12  CHVEC1               0.0/   0.0
  13  CHORST               0.0/   0.0
  14  CHOMAP               0.0/   0.0
  15  CHODIAG              0.0/   0.0
  - - - - - - - - - - - - - - - - - - - -
--
 ###############################################################################
 ###############################################################################
 ###                                                                         ###
 ###                                                                         ###
 ###    WARNING: RunFile label nBas                                          ###
 ###    was used       74 times                                              ###
 ###                                                                         ###
 ###                                                                         ###
 ###############################################################################
 ###############################################################################
--- Stop Module: scf at Fri May  5 16:18:40 2023 /rc=_RC_ALL_IS_WELL_ ---
*** files: scf.scf.molden scf.ScfOrb scf.scf.h5 xmldump
    saved to directory /home/marlenne/thymine/Thymine/MOLCAS/3.Ground_State/1.GS_non-planar/try2/orbs
--- Module scf spent 15 seconds ---
 Happy landing!
    Timing: Wall=18.49 User=17.75 System=0.29
