 Entering Gaussian System, Link 0=/shared/gaussian/g16.b01/AVX2/g16/g16
 Initial command:
 /shared/gaussian/g16.b01/AVX2/g16/l1.exe "/scratch/marlene/SCRGAU.104921.Uracil6311-opt/Gau-1072.inp" -scrdir="/scratch/marlene/SCRGAU.104921.Uracil6311-opt/"
 Entering Link 1 = /shared/gaussian/g16.b01/AVX2/g16/l1.exe PID=      1073.
  
 Copyright (c) 1988-2017, Gaussian, Inc.  All Rights Reserved.
  
 This is part of the Gaussian(R) 16 program.  It is based on
 the Gaussian(R) 09 system (copyright 2009, Gaussian, Inc.),
 the Gaussian(R) 03 system (copyright 2003, Gaussian, Inc.),
 the Gaussian(R) 98 system (copyright 1998, Gaussian, Inc.),
 the Gaussian(R) 94 system (copyright 1995, Gaussian, Inc.),
 the Gaussian 92(TM) system (copyright 1992, Gaussian, Inc.),
 the Gaussian 90(TM) system (copyright 1990, Gaussian, Inc.),
 the Gaussian 88(TM) system (copyright 1988, Gaussian, Inc.),
 the Gaussian 86(TM) system (copyright 1986, Carnegie Mellon
 University), and the Gaussian 82(TM) system (copyright 1983,
 Carnegie Mellon University). Gaussian is a federally registered
 trademark of Gaussian, Inc.
  
 This software contains proprietary and confidential information,
 including trade secrets, belonging to Gaussian, Inc.
  
 This software is provided under written license and may be
 used, copied, transmitted, or stored only in accord with that
 written license.
  
 The following legend is applicable only to US Government
 contracts under FAR:
  
                    RESTRICTED RIGHTS LEGEND
  
 Use, reproduction and disclosure by the US Government is
 subject to restrictions as set forth in subparagraphs (a)
 and (c) of the Commercial Computer Software - Restricted
 Rights clause in FAR 52.227-19.
  
 Gaussian, Inc.
 340 Quinnipiac St., Bldg. 40, Wallingford CT 06492
  
  
 ---------------------------------------------------------------
 Warning -- This program may not be used in any manner that
 competes with the business of Gaussian, Inc. or will provide
 assistance to any competitor of Gaussian, Inc.  The licensee
 of this program is prohibited from giving any competitor of
 Gaussian, Inc. access to this program.  By using this program,
 the user acknowledges that Gaussian, Inc. is engaged in the
 business of creating and licensing software in the field of
 computational chemistry and represents and warrants to the
 licensee that it is not a competitor of Gaussian, Inc. and that
 it will not use this program in any manner prohibited above.
 ---------------------------------------------------------------
  

 Cite this work as:
 Gaussian 16, Revision B.01,
 M. J. Frisch, G. W. Trucks, H. B. Schlegel, G. E. Scuseria, 
 M. A. Robb, J. R. Cheeseman, G. Scalmani, V. Barone, 
 G. A. Petersson, H. Nakatsuji, X. Li, M. Caricato, A. V. Marenich, 
 J. Bloino, B. G. Janesko, R. Gomperts, B. Mennucci, H. P. Hratchian, 
 J. V. Ortiz, A. F. Izmaylov, J. L. Sonnenberg, D. Williams-Young, 
 F. Ding, F. Lipparini, F. Egidi, J. Goings, B. Peng, A. Petrone, 
 T. Henderson, D. Ranasinghe, V. G. Zakrzewski, J. Gao, N. Rega, 
 G. Zheng, W. Liang, M. Hada, M. Ehara, K. Toyota, R. Fukuda, 
 J. Hasegawa, M. Ishida, T. Nakajima, Y. Honda, O. Kitao, H. Nakai, 
 T. Vreven, K. Throssell, J. A. Montgomery, Jr., J. E. Peralta, 
 F. Ogliaro, M. J. Bearpark, J. J. Heyd, E. N. Brothers, K. N. Kudin, 
 V. N. Staroverov, T. A. Keith, R. Kobayashi, J. Normand, 
 K. Raghavachari, A. P. Rendell, J. C. Burant, S. S. Iyengar, 
 J. Tomasi, M. Cossi, J. M. Millam, M. Klene, C. Adamo, R. Cammi, 
 J. W. Ochterski, R. L. Martin, K. Morokuma, O. Farkas, 
 J. B. Foresman, and D. J. Fox, Gaussian, Inc., Wallingford CT, 2016.
 
 ******************************************
 Gaussian 16:  ES64L-G16RevB.01 20-Dec-2017
                22-Nov-2022 
 ******************************************
 %nprocshared=50
 Will use up to   50 processors via shared memory.
 %mem=5GB
 %chk=Uracil6311-opt.chk
 ------------------------------------
 #p opt cam-b3lyp/6-311+G(d,p) nosymm
 ------------------------------------
 1/18=20,19=15,26=3,38=1/1,3;
 2/9=110,12=2,15=1,17=6,18=5,40=1/2;
 3/5=4,6=6,7=111,11=2,25=1,30=1,71=1,74=-40/1,2,3;
 4//1;
 5/5=2,38=5/2;
 6/7=2,8=2,9=2,10=2,28=1/1;
 7/30=1/1,2,3,16;
 1/18=20,19=15,26=3/3(2);
 2/9=110,15=1/2;
 99//99;
 2/9=110,15=1/2;
 3/5=4,6=6,7=111,11=2,25=1,30=1,71=1,74=-40/1,2,3;
 4/5=5,16=3,69=1/1;
 5/5=2,38=5/2;
 7/30=1/1,2,3,16;
 1/18=20,19=15,26=3/3(-5);
 2/9=110,15=1/2;
 6/7=2,8=2,9=2,10=2,19=2,28=1/1;
 99/9=1/99;
 Leave Link    1 at Tue Nov 22 10:49:21 2022, MaxMem=   671088640 cpu:               1.3 elap:               0.0
 (Enter /shared/gaussian/g16.b01/AVX2/g16/l101.exe)
 ------
 Uracil
 ------
 Symbolic Z-matrix:
 Charge =  0 Multiplicity = 1
 C                    -1.22827   0.36085   0. 
 C                     0.05585  -1.70024   0. 
 C                     1.23475  -1.065     0. 
 C                     1.27019   0.39091   0. 
 N                    -0.00036   0.98616   0. 
 H                    -0.02532  -2.77927   0. 
 H                     2.17307  -1.59667   0. 
 O                     2.26597   1.0768    0. 
 O                    -2.284     0.94628   0. 
 N                    -1.13665  -1.02137   0. 
 H                    -2.01858  -1.50972   0. 
 H                    -0.02256   1.99783   0. 
 
 ITRead=  0  0  0  0  0  0  0  0  0  0  0  0
 MicOpt= -1 -1 -1 -1 -1 -1 -1 -1 -1 -1 -1 -1
 NAtoms=     12 NQM=       12 NQMF=       0 NMMI=      0 NMMIF=      0
                NMic=       0 NMicF=      0.
                    Isotopes and Nuclear Properties:
 (Nuclear quadrupole moments (NQMom) in fm**2, nuclear magnetic moments (NMagM)
  in nuclear magnetons)

  Atom         1           2           3           4           5           6           7           8           9          10
 IAtWgt=          12          12          12          12          14           1           1          16          16          14
 AtmWgt=  12.0000000  12.0000000  12.0000000  12.0000000  14.0030740   1.0078250   1.0078250  15.9949146  15.9949146  14.0030740
 NucSpn=           0           0           0           0           2           1           1           0           0           2
 AtZEff=  -0.0000000  -0.0000000  -0.0000000  -0.0000000  -0.0000000  -0.0000000  -0.0000000  -0.0000000  -0.0000000  -0.0000000
 NQMom=    0.0000000   0.0000000   0.0000000   0.0000000   2.0440000   0.0000000   0.0000000   0.0000000   0.0000000   2.0440000
 NMagM=    0.0000000   0.0000000   0.0000000   0.0000000   0.4037610   2.7928460   2.7928460   0.0000000   0.0000000   0.4037610
 AtZNuc=   6.0000000   6.0000000   6.0000000   6.0000000   7.0000000   1.0000000   1.0000000   8.0000000   8.0000000   7.0000000

  Atom        11          12
 IAtWgt=           1           1
 AtmWgt=   1.0078250   1.0078250
 NucSpn=           1           1
 AtZEff=  -0.0000000  -0.0000000
 NQMom=    0.0000000   0.0000000
 NMagM=    2.7928460   2.7928460
 AtZNuc=   1.0000000   1.0000000
 Leave Link  101 at Tue Nov 22 10:49:22 2022, MaxMem=   671088640 cpu:              10.6 elap:               0.2
 (Enter /shared/gaussian/g16.b01/AVX2/g16/l103.exe)

 GradGradGradGradGradGradGradGradGradGradGradGradGradGradGradGradGradGrad
 Berny optimization.
 Initialization pass.
                           ----------------------------
                           !    Initial Parameters    !
                           ! (Angstroms and Degrees)  !
 --------------------------                            --------------------------
 ! Name  Definition              Value          Derivative Info.                !
 --------------------------------------------------------------------------------
 ! R1    R(1,5)                  1.378          estimate D2E/DX2                !
 ! R2    R(1,9)                  1.2072         estimate D2E/DX2                !
 ! R3    R(1,10)                 1.3853         estimate D2E/DX2                !
 ! R4    R(2,3)                  1.3392         estimate D2E/DX2                !
 ! R5    R(2,6)                  1.0821         estimate D2E/DX2                !
 ! R6    R(2,10)                 1.3722         estimate D2E/DX2                !
 ! R7    R(3,4)                  1.4563         estimate D2E/DX2                !
 ! R8    R(3,7)                  1.0785         estimate D2E/DX2                !
 ! R9    R(4,5)                  1.4031         estimate D2E/DX2                !
 ! R10   R(4,8)                  1.2091         estimate D2E/DX2                !
 ! R11   R(5,12)                 1.0119         estimate D2E/DX2                !
 ! R12   R(10,11)                1.0081         estimate D2E/DX2                !
 ! A1    A(5,1,9)              124.0031         estimate D2E/DX2                !
 ! A2    A(5,1,10)             113.1948         estimate D2E/DX2                !
 ! A3    A(9,1,10)             122.8021         estimate D2E/DX2                !
 ! A4    A(3,2,6)              122.619          estimate D2E/DX2                !
 ! A5    A(3,2,10)             122.0306         estimate D2E/DX2                !
 ! A6    A(6,2,10)             115.3504         estimate D2E/DX2                !
 ! A7    A(2,3,4)              119.7117         estimate D2E/DX2                !
 ! A8    A(2,3,7)              122.1457         estimate D2E/DX2                !
 ! A9    A(4,3,7)              118.1426         estimate D2E/DX2                !
 ! A10   A(3,4,5)              113.7088         estimate D2E/DX2                !
 ! A11   A(3,4,8)              125.9533         estimate D2E/DX2                !
 ! A12   A(5,4,8)              120.338          estimate D2E/DX2                !
 ! A13   A(1,5,4)              127.9096         estimate D2E/DX2                !
 ! A14   A(1,5,12)             115.73           estimate D2E/DX2                !
 ! A15   A(4,5,12)             116.3604         estimate D2E/DX2                !
 ! A16   A(1,10,2)             123.4446         estimate D2E/DX2                !
 ! A17   A(1,10,11)            115.1818         estimate D2E/DX2                !
 ! A18   A(2,10,11)            121.3736         estimate D2E/DX2                !
 ! D1    D(9,1,5,4)            180.0            estimate D2E/DX2                !
 ! D2    D(9,1,5,12)             0.0            estimate D2E/DX2                !
 ! D3    D(10,1,5,4)             0.0            estimate D2E/DX2                !
 ! D4    D(10,1,5,12)          180.0            estimate D2E/DX2                !
 ! D5    D(5,1,10,2)             0.0            estimate D2E/DX2                !
 ! D6    D(5,1,10,11)          180.0            estimate D2E/DX2                !
 ! D7    D(9,1,10,2)           180.0            estimate D2E/DX2                !
 ! D8    D(9,1,10,11)            0.0            estimate D2E/DX2                !
 ! D9    D(6,2,3,4)            180.0            estimate D2E/DX2                !
 ! D10   D(6,2,3,7)              0.0            estimate D2E/DX2                !
 ! D11   D(10,2,3,4)             0.0            estimate D2E/DX2                !
 ! D12   D(10,2,3,7)           180.0            estimate D2E/DX2                !
 ! D13   D(3,2,10,1)             0.0            estimate D2E/DX2                !
 ! D14   D(3,2,10,11)          180.0            estimate D2E/DX2                !
 ! D15   D(6,2,10,1)           180.0            estimate D2E/DX2                !
 ! D16   D(6,2,10,11)            0.0            estimate D2E/DX2                !
 ! D17   D(2,3,4,5)              0.0            estimate D2E/DX2                !
 ! D18   D(2,3,4,8)            180.0            estimate D2E/DX2                !
 ! D19   D(7,3,4,5)            180.0            estimate D2E/DX2                !
 ! D20   D(7,3,4,8)              0.0            estimate D2E/DX2                !
 ! D21   D(3,4,5,1)              0.0            estimate D2E/DX2                !
 ! D22   D(3,4,5,12)           180.0            estimate D2E/DX2                !
 ! D23   D(8,4,5,1)            180.0            estimate D2E/DX2                !
 ! D24   D(8,4,5,12)             0.0            estimate D2E/DX2                !
 --------------------------------------------------------------------------------
 Trust Radius=3.00D-01 FncErr=1.00D-07 GrdErr=1.00D-06 EigMax=2.50D+02 EigMin=1.00D-04
 Number of steps in this run=     64 maximum allowed number of steps=    100.
 GradGradGradGradGradGradGradGradGradGradGradGradGradGradGradGradGradGrad

 Leave Link  103 at Tue Nov 22 10:49:22 2022, MaxMem=   671088640 cpu:               0.5 elap:               0.0
 (Enter /shared/gaussian/g16.b01/AVX2/g16/l202.exe)
                          Input orientation:                          
 ---------------------------------------------------------------------
 Center     Atomic      Atomic             Coordinates (Angstroms)
 Number     Number       Type             X           Y           Z
 ---------------------------------------------------------------------
      1          6           0       -1.228274    0.360852    0.000000
      2          6           0        0.055847   -1.700239    0.000000
      3          6           0        1.234753   -1.065003    0.000000
      4          6           0        1.270191    0.390911    0.000000
      5          7           0       -0.000359    0.986164    0.000000
      6          1           0       -0.025317   -2.779266    0.000000
      7          1           0        2.173067   -1.596674    0.000000
      8          8           0        2.265971    1.076801    0.000000
      9          8           0       -2.283998    0.946280    0.000000
     10          7           0       -1.136647   -1.021375    0.000000
     11          1           0       -2.018580   -1.509722    0.000000
     12          1           0       -0.022563    1.997828    0.000000
 ---------------------------------------------------------------------
                    Distance matrix (angstroms):
                    1          2          3          4          5
     1  C    0.000000
     2  C    2.428387   0.000000
     3  C    2.845973   1.339158   0.000000
     4  C    2.498646   2.418169   1.456345   0.000000
     5  N    1.377966   2.686991   2.394324   1.403076   0.000000
     6  H    3.362655   1.082075   2.127551   3.424670   3.765513
     7  H    3.924414   2.119751   1.078474   2.183044   3.375623
     8  O    3.566838   3.549169   2.377127   1.209141   2.268142
     9  O    1.207178   3.532554   4.053007   3.597318   2.283987
    10  N    1.385261   1.372187   2.371801   2.790595   2.306808
    11  H    2.030672   2.083157   3.283588   3.798476   3.209776
    12  H    2.033084   3.698898   3.310857   2.062376   1.011908
                    6          7          8          9         10
     6  H    0.000000
     7  H    2.496280   0.000000
     8  O    4.485449   2.675089   0.000000
     9  O    4.356757   5.131476   4.551841   0.000000
    10  N    2.079720   3.359342   3.997518   2.277736   0.000000
    11  H    2.363226   4.192549   5.004746   2.470302   1.008111
    12  H    4.777095   4.212035   2.466917   2.493961   3.218194
                   11         12
    11  H    0.000000
    12  H    4.035714   0.000000
 Symmetry turned off by external request.
 Stoichiometry    C4H4N2O2
 Framework group  CS[SG(C4H4N2O2)]
 Deg. of freedom    21
 Full point group                 CS      NOp   2
 Rotational constants (GHZ):           3.9115689           2.0340469           1.3381818
 Leave Link  202 at Tue Nov 22 10:49:22 2022, MaxMem=   671088640 cpu:               0.4 elap:               0.0
 (Enter /shared/gaussian/g16.b01/AVX2/g16/l301.exe)
 Standard basis: 6-311+G(d,p) (5D, 7F)
 Ernie: Thresh=  0.10000D-02 Tol=  0.10000D-05 Strict=F.
   200 basis functions,   320 primitive gaussians,   208 cartesian basis functions
    29 alpha electrons       29 beta electrons
       nuclear repulsion energy       357.7652694771 Hartrees.
 IExCor=20419 DFT=T Ex+Corr=CAM-B3LYP ExCW=0 ScaHFX=  1.000000
 ScaDFX=  1.000000  1.000000  1.000000  0.810000 ScalE2=  1.000000  1.000000
 IRadAn=      5 IRanWt=     -1 IRanGd=            0 ICorTp=0 IEmpDi=  4
 HFx  wShort=  0.000000 wLong=  0.330000 cFull=  0.190000 cShort=  0.000000 cLong=  0.460000
 DFx  wShort=  0.000000 wLong=  0.330000 cFull=  0.190000 cShort=  0.000000 cLong=  0.460000
 NAtoms=   12 NActive=   12 NUniq=   12 SFac= 1.00D+00 NAtFMM=   60 NAOKFM=F Big=F
 Integral buffers will be    131072 words long.
 Raffenetti 2 integral format.
 Two-electron integral symmetry is turned off.
 Leave Link  301 at Tue Nov 22 10:49:22 2022, MaxMem=   671088640 cpu:               2.4 elap:               0.1
 (Enter /shared/gaussian/g16.b01/AVX2/g16/l302.exe)
 NPDir=0 NMtPBC=     1 NCelOv=     1 NCel=       1 NClECP=     1 NCelD=      1
         NCelK=      1 NCelE2=     1 NClLst=     1 CellRange=     0.0.
 One-electron integrals computed using PRISM.
 NBasis=   200 RedAO= T EigKep=  2.40D-05  NBF=   200
 NBsUse=   200 1.00D-06 EigRej= -1.00D+00 NBFU=   200
 Precomputing XC quadrature grid using
 IXCGrd= 4 IRadAn=           5 IRanWt=          -1 IRanGd=           0 AccXCQ= 0.00D+00.
 Generated NRdTot=       0 NPtTot=           0 NUsed=           0 NTot=          32
 NSgBfM=   208   208   208   208   208 MxSgAt=    12 MxSgA2=    12.
 Leave Link  302 at Tue Nov 22 10:49:22 2022, MaxMem=   671088640 cpu:              10.3 elap:               0.2
 (Enter /shared/gaussian/g16.b01/AVX2/g16/l303.exe)
 DipDrv:  MaxL=1.
 Leave Link  303 at Tue Nov 22 10:49:22 2022, MaxMem=   671088640 cpu:               1.6 elap:               0.1
 (Enter /shared/gaussian/g16.b01/AVX2/g16/l401.exe)
 ExpMin= 4.38D-02 ExpMax= 8.59D+03 ExpMxC= 1.30D+03 IAcc=3 IRadAn=         5 AccDes= 0.00D+00
 Harris functional with IExCor=20419 and IRadAn=       5 diagonalized for initial guess.
 HarFok:  IExCor=20419 AccDes= 0.00D+00 IRadAn=         5 IDoV= 1 UseB2=F ITyADJ=14
 ICtDFT=  3500011 ScaDFX=  1.000000  1.000000  1.000000  1.000000
 FoFCou: FMM=F IPFlag=           0 FMFlag=      100000 FMFlg1=           0
         NFxFlg=           0 DoJE=T BraDBF=F KetDBF=T FulRan=T
         wScrn=  0.000000 ICntrl=       500 IOpCl=  0 I1Cent=   200000004 NGrid=           0
         NMat0=    1 NMatS0=      1 NMatT0=    0 NMatD0=    1 NMtDS0=    0 NMtDT0=    0
 Symmetry not used in FoFCou.
 Harris En= -400.142028916689    
 JPrj=0 DoOrth=F DoCkMO=F.
 Leave Link  401 at Tue Nov 22 10:49:22 2022, MaxMem=   671088640 cpu:              15.4 elap:               0.4
 (Enter /shared/gaussian/g16.b01/AVX2/g16/l502.exe)
 Keep R1 ints in memory in canonical form, NReq=455953022.
 FoFCou: FMM=F IPFlag=           0 FMFlag=           0 FMFlg1=           0
         NFxFlg=           0 DoJE=F BraDBF=F KetDBF=F FulRan=T
         wScrn=  0.000000 ICntrl=       600 IOpCl=  0 I1Cent=           0 NGrid=           0
         NMat0=    1 NMatS0=  20100 NMatT0=    0 NMatD0=    1 NMtDS0=    0 NMtDT0=    0
 Symmetry not used in FoFCou.
 Two-electron integral symmetry not used.
 Closed shell SCF:
 Using DIIS extrapolation, IDIIS=  1040.
 NGot=   671088640 LenX=   266960058 LenY=   266916353
 Requested convergence on RMS density matrix=1.00D-08 within 128 cycles.
 Requested convergence on MAX density matrix=1.00D-06.
 Requested convergence on             energy=1.00D-06.
 No special actions if energy rises.

 Cycle   1  Pass 1  IDiag  1:
 E= -414.639856831020    
 DIIS: error= 6.66D-02 at cycle   1 NSaved=   1.
 NSaved= 1 IEnMin= 1 EnMin= -414.639856831020     IErMin= 1 ErrMin= 6.66D-02
 ErrMax= 6.66D-02  0.00D+00 EMaxC= 1.00D-01 BMatC= 6.95D-01 BMatP= 6.95D-01
 IDIUse=3 WtCom= 3.34D-01 WtEn= 6.66D-01
 Coeff-Com:  0.100D+01
 Coeff-En:   0.100D+01
 Coeff:      0.100D+01
 Gap=     0.366 Goal=   None    Shift=    0.000
 GapD=    0.366 DampG=1.000 DampE=0.500 DampFc=0.5000 IDamp=-1.
 Damping current iteration by 5.00D-01
 RMSDP=5.69D-03 MaxDP=4.31D-01              OVMax= 1.81D-01

 Cycle   2  Pass 1  IDiag  1:
 E= -414.697818749556     Delta-E=       -0.057961918536 Rises=F Damp=T
 DIIS: error= 3.17D-02 at cycle   2 NSaved=   2.
 NSaved= 2 IEnMin= 2 EnMin= -414.697818749556     IErMin= 2 ErrMin= 3.17D-02
 ErrMax= 3.17D-02  0.00D+00 EMaxC= 1.00D-01 BMatC= 1.43D-01 BMatP= 6.95D-01
 IDIUse=3 WtCom= 6.83D-01 WtEn= 3.17D-01
 Coeff-Com: -0.509D+00 0.151D+01
 Coeff-En:   0.000D+00 0.100D+01
 Coeff:     -0.347D+00 0.135D+01
 Gap=     0.337 Goal=   None    Shift=    0.000
 RMSDP=3.31D-03 MaxDP=3.23D-01 DE=-5.80D-02 OVMax= 1.52D-01

 Cycle   3  Pass 1  IDiag  1:
 E= -414.719417938336     Delta-E=       -0.021599188780 Rises=F Damp=F
 DIIS: error= 2.02D-02 at cycle   3 NSaved=   3.
 NSaved= 3 IEnMin= 3 EnMin= -414.719417938336     IErMin= 3 ErrMin= 2.02D-02
 ErrMax= 2.02D-02  0.00D+00 EMaxC= 1.00D-01 BMatC= 6.60D-02 BMatP= 1.43D-01
 IDIUse=3 WtCom= 7.98D-01 WtEn= 2.02D-01
 Coeff-Com: -0.358D+00 0.813D+00 0.545D+00
 Coeff-En:   0.000D+00 0.272D+00 0.728D+00
 Coeff:     -0.286D+00 0.703D+00 0.582D+00
 Gap=     0.313 Goal=   None    Shift=    0.000
 RMSDP=1.65D-03 MaxDP=6.97D-02 DE=-2.16D-02 OVMax= 8.17D-02

 Cycle   4  Pass 1  IDiag  1:
 E= -414.764308937814     Delta-E=       -0.044890999478 Rises=F Damp=F
 DIIS: error= 7.22D-03 at cycle   4 NSaved=   4.
 NSaved= 4 IEnMin= 4 EnMin= -414.764308937814     IErMin= 4 ErrMin= 7.22D-03
 ErrMax= 7.22D-03  0.00D+00 EMaxC= 1.00D-01 BMatC= 8.37D-03 BMatP= 6.60D-02
 IDIUse=3 WtCom= 9.28D-01 WtEn= 7.22D-02
 Coeff-Com: -0.144D+00 0.313D+00 0.345D+00 0.486D+00
 Coeff-En:   0.000D+00 0.000D+00 0.717D-01 0.928D+00
 Coeff:     -0.134D+00 0.290D+00 0.326D+00 0.518D+00
 Gap=     0.311 Goal=   None    Shift=    0.000
 RMSDP=8.25D-04 MaxDP=5.20D-02 DE=-4.49D-02 OVMax= 1.91D-02

 Cycle   5  Pass 1  IDiag  1:
 E= -414.769855607447     Delta-E=       -0.005546669633 Rises=F Damp=F
 DIIS: error= 1.51D-03 at cycle   5 NSaved=   5.
 NSaved= 5 IEnMin= 5 EnMin= -414.769855607447     IErMin= 5 ErrMin= 1.51D-03
 ErrMax= 1.51D-03  0.00D+00 EMaxC= 1.00D-01 BMatC= 2.64D-04 BMatP= 8.37D-03
 IDIUse=3 WtCom= 9.85D-01 WtEn= 1.51D-02
 Coeff-Com: -0.391D-01 0.833D-01 0.112D+00 0.258D+00 0.586D+00
 Coeff-En:   0.000D+00 0.000D+00 0.000D+00 0.000D+00 0.100D+01
 Coeff:     -0.385D-01 0.820D-01 0.111D+00 0.254D+00 0.592D+00
 Gap=     0.311 Goal=   None    Shift=    0.000
 RMSDP=1.01D-04 MaxDP=3.45D-03 DE=-5.55D-03 OVMax= 4.33D-03

 Cycle   6  Pass 1  IDiag  1:
 E= -414.770050684494     Delta-E=       -0.000195077047 Rises=F Damp=F
 DIIS: error= 3.94D-04 at cycle   6 NSaved=   6.
 NSaved= 6 IEnMin= 6 EnMin= -414.770050684494     IErMin= 6 ErrMin= 3.94D-04
 ErrMax= 3.94D-04  0.00D+00 EMaxC= 1.00D-01 BMatC= 1.48D-05 BMatP= 2.64D-04
 IDIUse=3 WtCom= 9.96D-01 WtEn= 3.94D-03
 Coeff-Com:  0.142D-01-0.311D-01-0.229D-01 0.752D-02 0.246D+00 0.786D+00
 Coeff-En:   0.000D+00 0.000D+00 0.000D+00 0.000D+00 0.000D+00 0.100D+01
 Coeff:      0.142D-01-0.310D-01-0.228D-01 0.749D-02 0.245D+00 0.787D+00
 Gap=     0.311 Goal=   None    Shift=    0.000
 RMSDP=8.32D-05 MaxDP=6.82D-03 DE=-1.95D-04 OVMax= 2.76D-03

 Cycle   7  Pass 1  IDiag  1:
 E= -414.770068908998     Delta-E=       -0.000018224504 Rises=F Damp=F
 DIIS: error= 1.43D-04 at cycle   7 NSaved=   7.
 NSaved= 7 IEnMin= 7 EnMin= -414.770068908998     IErMin= 7 ErrMin= 1.43D-04
 ErrMax= 1.43D-04  0.00D+00 EMaxC= 1.00D-01 BMatC= 2.51D-06 BMatP= 1.48D-05
 IDIUse=3 WtCom= 9.99D-01 WtEn= 1.43D-03
 Coeff-Com:  0.867D-02-0.187D-01-0.168D-01-0.199D-01 0.551D-01 0.347D+00
 Coeff-Com:  0.644D+00
 Coeff-En:   0.000D+00 0.000D+00 0.000D+00 0.000D+00 0.000D+00 0.000D+00
 Coeff-En:   0.100D+01
 Coeff:      0.866D-02-0.187D-01-0.168D-01-0.199D-01 0.550D-01 0.347D+00
 Coeff:      0.645D+00
 Gap=     0.311 Goal=   None    Shift=    0.000
 RMSDP=1.73D-05 MaxDP=1.09D-03 DE=-1.82D-05 OVMax= 6.26D-04

 Cycle   8  Pass 1  IDiag  1:
 E= -414.770071420023     Delta-E=       -0.000002511025 Rises=F Damp=F
 DIIS: error= 5.22D-05 at cycle   8 NSaved=   8.
 NSaved= 8 IEnMin= 8 EnMin= -414.770071420023     IErMin= 8 ErrMin= 5.22D-05
 ErrMax= 5.22D-05  0.00D+00 EMaxC= 1.00D-01 BMatC= 4.22D-07 BMatP= 2.51D-06
 IDIUse=1 WtCom= 1.00D+00 WtEn= 0.00D+00
 Coeff-Com:  0.141D-02-0.294D-02-0.361D-02-0.142D-01-0.277D-01 0.584D-02
 Coeff-Com:  0.281D+00 0.760D+00
 Coeff:      0.141D-02-0.294D-02-0.361D-02-0.142D-01-0.277D-01 0.584D-02
 Coeff:      0.281D+00 0.760D+00
 Gap=     0.311 Goal=   None    Shift=    0.000
 RMSDP=1.48D-05 MaxDP=1.07D-03 DE=-2.51D-06 OVMax= 2.80D-04

 Cycle   9  Pass 1  IDiag  1:
 E= -414.770071888351     Delta-E=       -0.000000468328 Rises=F Damp=F
 DIIS: error= 2.24D-05 at cycle   9 NSaved=   9.
 NSaved= 9 IEnMin= 9 EnMin= -414.770071888351     IErMin= 9 ErrMin= 2.24D-05
 ErrMax= 2.24D-05  0.00D+00 EMaxC= 1.00D-01 BMatC= 4.48D-08 BMatP= 4.22D-07
 IDIUse=1 WtCom= 1.00D+00 WtEn= 0.00D+00
 Coeff-Com: -0.499D-03 0.111D-02 0.727D-03-0.375D-02-0.186D-01-0.383D-01
 Coeff-Com:  0.421D-01 0.328D+00 0.689D+00
 Coeff:     -0.499D-03 0.111D-02 0.727D-03-0.375D-02-0.186D-01-0.383D-01
 Coeff:      0.421D-01 0.328D+00 0.689D+00
 Gap=     0.311 Goal=   None    Shift=    0.000
 RMSDP=2.17D-06 MaxDP=1.01D-04 DE=-4.68D-07 OVMax= 1.78D-04

 Cycle  10  Pass 1  IDiag  1:
 E= -414.770071939175     Delta-E=       -0.000000050825 Rises=F Damp=F
 DIIS: error= 7.61D-06 at cycle  10 NSaved=  10.
 NSaved=10 IEnMin=10 EnMin= -414.770071939175     IErMin=10 ErrMin= 7.61D-06
 ErrMax= 7.61D-06  0.00D+00 EMaxC= 1.00D-01 BMatC= 7.45D-09 BMatP= 4.48D-08
 IDIUse=1 WtCom= 1.00D+00 WtEn= 0.00D+00
 Coeff-Com: -0.421D-03 0.905D-03 0.919D-03 0.727D-03-0.348D-02-0.164D-01
 Coeff-Com: -0.276D-01 0.117D-01 0.319D+00 0.715D+00
 Coeff:     -0.421D-03 0.905D-03 0.919D-03 0.727D-03-0.348D-02-0.164D-01
 Coeff:     -0.276D-01 0.117D-01 0.319D+00 0.715D+00
 Gap=     0.311 Goal=   None    Shift=    0.000
 RMSDP=8.68D-07 MaxDP=2.91D-05 DE=-5.08D-08 OVMax= 3.37D-05

 Cycle  11  Pass 1  IDiag  1:
 E= -414.770071947111     Delta-E=       -0.000000007936 Rises=F Damp=F
 DIIS: error= 1.82D-06 at cycle  11 NSaved=  11.
 NSaved=11 IEnMin=11 EnMin= -414.770071947111     IErMin=11 ErrMin= 1.82D-06
 ErrMax= 1.82D-06  0.00D+00 EMaxC= 1.00D-01 BMatC= 3.97D-10 BMatP= 7.45D-09
 IDIUse=1 WtCom= 1.00D+00 WtEn= 0.00D+00
 Coeff-Com: -0.692D-04 0.147D-03 0.202D-03 0.470D-03 0.198D-03-0.218D-02
 Coeff-Com: -0.136D-01-0.224D-01 0.710D-01 0.229D+00 0.738D+00
 Coeff:     -0.692D-04 0.147D-03 0.202D-03 0.470D-03 0.198D-03-0.218D-02
 Coeff:     -0.136D-01-0.224D-01 0.710D-01 0.229D+00 0.738D+00
 Gap=     0.311 Goal=   None    Shift=    0.000
 RMSDP=2.01D-07 MaxDP=1.34D-05 DE=-7.94D-09 OVMax= 1.51D-05

 Cycle  12  Pass 1  IDiag  1:
 E= -414.770071947602     Delta-E=       -0.000000000491 Rises=F Damp=F
 DIIS: error= 7.79D-07 at cycle  12 NSaved=  12.
 NSaved=12 IEnMin=12 EnMin= -414.770071947602     IErMin=12 ErrMin= 7.79D-07
 ErrMax= 7.79D-07  0.00D+00 EMaxC= 1.00D-01 BMatC= 8.10D-11 BMatP= 3.97D-10
 IDIUse=1 WtCom= 1.00D+00 WtEn= 0.00D+00
 Coeff-Com:  0.238D-04-0.518D-04-0.235D-04 0.122D-03 0.582D-03 0.148D-02
 Coeff-Com: -0.215D-02-0.105D-01-0.155D-01-0.306D-01 0.297D+00 0.759D+00
 Coeff:      0.238D-04-0.518D-04-0.235D-04 0.122D-03 0.582D-03 0.148D-02
 Coeff:     -0.215D-02-0.105D-01-0.155D-01-0.306D-01 0.297D+00 0.759D+00
 Gap=     0.311 Goal=   None    Shift=    0.000
 RMSDP=8.86D-08 MaxDP=3.21D-06 DE=-4.91D-10 OVMax= 4.63D-06

 Cycle  13  Pass 1  IDiag  1:
 E= -414.770071947703     Delta-E=       -0.000000000101 Rises=F Damp=F
 DIIS: error= 1.85D-07 at cycle  13 NSaved=  13.
 NSaved=13 IEnMin=13 EnMin= -414.770071947703     IErMin=13 ErrMin= 1.85D-07
 ErrMax= 1.85D-07  0.00D+00 EMaxC= 1.00D-01 BMatC= 4.16D-12 BMatP= 8.10D-11
 IDIUse=1 WtCom= 1.00D+00 WtEn= 0.00D+00
 Coeff-Com:  0.818D-05-0.175D-04-0.161D-04-0.208D-04 0.687D-04 0.434D-03
 Coeff-Com:  0.707D-03 0.669D-03-0.825D-02-0.301D-01-0.120D-01 0.926D-01
 Coeff-Com:  0.956D+00
 Coeff:      0.818D-05-0.175D-04-0.161D-04-0.208D-04 0.687D-04 0.434D-03
 Coeff:      0.707D-03 0.669D-03-0.825D-02-0.301D-01-0.120D-01 0.926D-01
 Coeff:      0.956D+00
 Gap=     0.311 Goal=   None    Shift=    0.000
 RMSDP=2.23D-08 MaxDP=5.32D-07 DE=-1.01D-10 OVMax= 1.83D-06

 Cycle  14  Pass 1  IDiag  1:
 E= -414.770071947712     Delta-E=       -0.000000000009 Rises=F Damp=F
 DIIS: error= 9.83D-08 at cycle  14 NSaved=  14.
 NSaved=14 IEnMin=14 EnMin= -414.770071947712     IErMin=14 ErrMin= 9.83D-08
 ErrMax= 9.83D-08  0.00D+00 EMaxC= 1.00D-01 BMatC= 9.84D-13 BMatP= 4.16D-12
 IDIUse=1 WtCom= 1.00D+00 WtEn= 0.00D+00
 Coeff-Com:  0.245D-05-0.510D-05-0.745D-05-0.262D-04-0.400D-04 0.459D-04
 Coeff-Com:  0.538D-03 0.148D-02-0.175D-02-0.100D-01-0.321D-01-0.431D-01
 Coeff-Com:  0.414D+00 0.671D+00
 Coeff:      0.245D-05-0.510D-05-0.745D-05-0.262D-04-0.400D-04 0.459D-04
 Coeff:      0.538D-03 0.148D-02-0.175D-02-0.100D-01-0.321D-01-0.431D-01
 Coeff:      0.414D+00 0.671D+00
 Gap=     0.311 Goal=   None    Shift=    0.000
 RMSDP=8.41D-09 MaxDP=4.81D-07 DE=-9.32D-12 OVMax= 6.64D-07

 SCF Done:  E(RCAM-B3LYP) =  -414.770071948     A.U. after   14 cycles
            NFock= 14  Conv=0.84D-08     -V/T= 2.0029
 KE= 4.135610240444D+02 PE=-1.686277892479D+03 EE= 5.001815270097D+02
 Leave Link  502 at Tue Nov 22 10:49:28 2022, MaxMem=   671088640 cpu:             100.8 elap:               5.3
 (Enter /shared/gaussian/g16.b01/AVX2/g16/l601.exe)
 Copying SCF densities to generalized density rwf, IOpCl= 0 IROHF=0.

 **********************************************************************

            Population analysis using the SCF Density.

 **********************************************************************

 Alpha  occ. eigenvalues --  -19.19043 -19.18498 -14.46871 -14.45137 -10.41485
 Alpha  occ. eigenvalues --  -10.38058 -10.34157 -10.27386  -1.18339  -1.14825
 Alpha  occ. eigenvalues --   -1.08180  -1.02634  -0.89851  -0.78502  -0.75623
 Alpha  occ. eigenvalues --   -0.68760  -0.65063  -0.60693  -0.57377  -0.55833
 Alpha  occ. eigenvalues --   -0.53737  -0.50808  -0.50252  -0.49392  -0.45272
 Alpha  occ. eigenvalues --   -0.38102  -0.36552  -0.34867  -0.32450
 Alpha virt. eigenvalues --   -0.01305   0.00608   0.03659   0.04035   0.04196
 Alpha virt. eigenvalues --    0.05992   0.06585   0.07896   0.08357   0.09748
 Alpha virt. eigenvalues --    0.11110   0.11224   0.11836   0.14079   0.14519
 Alpha virt. eigenvalues --    0.15286   0.15730   0.16822   0.17132   0.18128
 Alpha virt. eigenvalues --    0.19404   0.20682   0.21326   0.22342   0.23132
 Alpha virt. eigenvalues --    0.23993   0.25361   0.26023   0.27819   0.28565
 Alpha virt. eigenvalues --    0.29125   0.29180   0.29913   0.31722   0.33961
 Alpha virt. eigenvalues --    0.34351   0.34421   0.35228   0.35444   0.36806
 Alpha virt. eigenvalues --    0.39690   0.40895   0.42784   0.46075   0.50289
 Alpha virt. eigenvalues --    0.52256   0.56311   0.57192   0.58007   0.60643
 Alpha virt. eigenvalues --    0.62639   0.62664   0.65421   0.65585   0.68640
 Alpha virt. eigenvalues --    0.70678   0.74017   0.75944   0.77046   0.79612
 Alpha virt. eigenvalues --    0.81849   0.82351   0.85246   0.85457   0.89588
 Alpha virt. eigenvalues --    0.89650   0.89934   0.93931   0.98602   1.04746
 Alpha virt. eigenvalues --    1.06004   1.07573   1.09347   1.13807   1.16053
 Alpha virt. eigenvalues --    1.19074   1.20209   1.20428   1.22140   1.23539
 Alpha virt. eigenvalues --    1.24036   1.25066   1.28558   1.29619   1.33443
 Alpha virt. eigenvalues --    1.35260   1.38359   1.53655   1.56285   1.60073
 Alpha virt. eigenvalues --    1.61931   1.67195   1.69360   1.69903   1.72479
 Alpha virt. eigenvalues --    1.73484   1.77094   1.79766   1.80749   1.84633
 Alpha virt. eigenvalues --    1.87336   1.90347   1.96301   1.98495   1.99019
 Alpha virt. eigenvalues --    2.03477   2.06953   2.11041   2.11972   2.26783
 Alpha virt. eigenvalues --    2.28351   2.31350   2.38503   2.39910   2.45637
 Alpha virt. eigenvalues --    2.48904   2.54960   2.56826   2.64349   2.67929
 Alpha virt. eigenvalues --    2.72287   2.75014   2.76017   2.78855   2.82943
 Alpha virt. eigenvalues --    2.86152   2.90888   2.92856   2.94884   2.97870
 Alpha virt. eigenvalues --    2.98613   2.99627   3.00977   3.02625   3.08714
 Alpha virt. eigenvalues --    3.19299   3.21202   3.42949   3.44058   3.45103
 Alpha virt. eigenvalues --    3.48279   3.53490   3.57016   3.62447   3.68191
 Alpha virt. eigenvalues --    3.71832   3.75912   3.87977   3.92162   3.92695
 Alpha virt. eigenvalues --    4.05677   4.12354   4.25907   4.76638   4.86980
 Alpha virt. eigenvalues --    4.92692   5.10079   5.12829   5.21073   5.25830
 Alpha virt. eigenvalues --    5.41316   5.82535   5.86469  23.74627  23.89603
 Alpha virt. eigenvalues --   23.95131  24.25557  35.61511  35.67066  50.04735
 Alpha virt. eigenvalues --   50.09641
          Condensed to atoms (all electrons):
               1          2          3          4          5          6
     1  C    4.921118  -0.216623   0.178986  -0.135384   0.178514   0.008552
     2  C   -0.216623   5.910596  -0.269676  -0.118364   0.297319   0.397449
     3  C    0.178986  -0.269676   6.129434   0.080504  -0.363812   0.004881
     4  C   -0.135384  -0.118364   0.080504   5.378933   0.104714   0.001220
     5  N    0.178514   0.297319  -0.363812   0.104714   7.297689  -0.003432
     6  H    0.008552   0.397449   0.004881   0.001220  -0.003432   0.495228
     7  H   -0.006054  -0.034980   0.400176   0.002773   0.010634  -0.006193
     8  O    0.023929   0.025999  -0.140672   0.406088  -0.098005  -0.000306
     9  O    0.407705   0.043847  -0.022702   0.027703  -0.101397  -0.000202
    10  N    0.271244   0.037553  -0.019351   0.099212  -0.228235  -0.053921
    11  H   -0.018893  -0.018581   0.005172  -0.007552   0.010144  -0.003586
    12  H   -0.019789  -0.012936   0.013589  -0.009501   0.334544   0.000075
               7          8          9         10         11         12
     1  C   -0.006054   0.023929   0.407705   0.271244  -0.018893  -0.019789
     2  C   -0.034980   0.025999   0.043847   0.037553  -0.018581  -0.012936
     3  C    0.400176  -0.140672  -0.022702  -0.019351   0.005172   0.013589
     4  C    0.002773   0.406088   0.027703   0.099212  -0.007552  -0.009501
     5  N    0.010634  -0.098005  -0.101397  -0.228235   0.010144   0.334544
     6  H   -0.006193  -0.000306  -0.000202  -0.053921  -0.003586   0.000075
     7  H    0.470785  -0.009118   0.000145   0.009297  -0.000053  -0.000135
     8  O   -0.009118   8.124032   0.001089  -0.001306  -0.000006   0.008031
     9  O    0.000145   0.001089   8.119126  -0.126431   0.011194   0.007925
    10  N    0.009297  -0.001306  -0.126431   7.036026   0.350106   0.012797
    11  H   -0.000053  -0.000006   0.011194   0.350106   0.341283  -0.000059
    12  H   -0.000135   0.008031   0.007925   0.012797  -0.000059   0.324035
 Mulliken charges:
               1
     1  C    0.406694
     2  C   -0.041604
     3  C    0.003470
     4  C    0.169654
     5  N   -0.438679
     6  H    0.160236
     7  H    0.162723
     8  O   -0.339754
     9  O   -0.368000
    10  N   -0.386992
    11  H    0.330830
    12  H    0.341423
 Sum of Mulliken charges =  -0.00000
 Mulliken charges with hydrogens summed into heavy atoms:
               1
     1  C    0.406694
     2  C    0.118632
     3  C    0.166192
     4  C    0.169654
     5  N   -0.097256
     8  O   -0.339754
     9  O   -0.368000
    10  N   -0.056161
 Electronic spatial extent (au):  <R**2>=            826.9715
 Charge=             -0.0000 electrons
 Dipole moment (field-independent basis, Debye):
    X=             -1.1331    Y=             -4.4800    Z=             -0.0000  Tot=              4.6210
 Quadrupole moment (field-independent basis, Debye-Ang):
   XX=            -59.1952   YY=            -38.5389   ZZ=            -46.7590
   XY=              1.6617   XZ=              0.0000   YZ=             -0.0000
 Traceless Quadrupole moment (field-independent basis, Debye-Ang):
   XX=            -11.0309   YY=              9.6255   ZZ=              1.4054
   XY=              1.6617   XZ=              0.0000   YZ=             -0.0000
 Octapole moment (field-independent basis, Debye-Ang**2):
  XXX=             -7.2678  YYY=             -7.7958  ZZZ=             -0.0000  XYY=             -6.7288
  XXY=            -32.4870  XXZ=              0.0000  XZZ=             -1.7692  YZZ=              4.1777
  YYZ=              0.0000  XYZ=              0.0000
 Hexadecapole moment (field-independent basis, Debye-Ang**3):
 XXXX=           -721.1699 YYYY=           -313.2718 ZZZZ=            -47.2316 XXXY=              6.0067
 XXXZ=              0.0000 YYYX=              5.0774 YYYZ=              0.0000 ZZZX=              0.0000
 ZZZY=             -0.0000 XXYY=           -175.5889 XXZZ=           -113.4556 YYZZ=            -75.8182
 XXYZ=             -0.0000 YYXZ=              0.0000 ZZXY=              1.4478
 N-N= 3.577652694771D+02 E-N=-1.686277887215D+03  KE= 4.135610240444D+02
 No NMR shielding tensors so no spin-rotation constants.
 Leave Link  601 at Tue Nov 22 10:49:28 2022, MaxMem=   671088640 cpu:               6.1 elap:               0.1
 (Enter /shared/gaussian/g16.b01/AVX2/g16/l701.exe)
 ... and contract with generalized density number  0.
 Compute integral first derivatives.
 Leave Link  701 at Tue Nov 22 10:49:28 2022, MaxMem=   671088640 cpu:               5.9 elap:               0.1
 (Enter /shared/gaussian/g16.b01/AVX2/g16/l702.exe)
 L702 exits ... SP integral derivatives will be done elsewhere.
 Leave Link  702 at Tue Nov 22 10:49:28 2022, MaxMem=   671088640 cpu:               0.6 elap:               0.0
 (Enter /shared/gaussian/g16.b01/AVX2/g16/l703.exe)
 Integral derivatives from FoFJK, PRISM(SPDF).
 Compute integral first derivatives, UseDBF=F ICtDFT=           0.
 Calling FoFJK, ICntrl=      2127 FMM=F ISym2X=0 I1Cent= 0 IOpClX= 0 NMat=1 NMatS=1 NMatT=0.
 FoFJK:  IHMeth= 1 ICntrl=    2127 DoSepK=T KAlg= 0 I1Cent=           0 FoldK=F
 IRaf=         1 NMat=       1 IRICut=       1 DoRegI=T DoRafI=F ISym2E= 0 IDoP0=0 IntGTp=1.
 FoFCou: FMM=F IPFlag=           0 FMFlag=      100000 FMFlg1=         800
         NFxFlg=           0 DoJE=F BraDBF=F KetDBF=F FulRan=T
         wScrn=  0.000000 ICntrl=      2527 IOpCl=  0 I1Cent=           0 NGrid=           0
         NMat0=    1 NMatS0=      1 NMatT0=    0 NMatD0=    1 NMtDS0=    0 NMtDT0=    0
 Symmetry not used in FoFCou.
 Leave Link  703 at Tue Nov 22 10:49:29 2022, MaxMem=   671088640 cpu:              50.8 elap:               1.0
 (Enter /shared/gaussian/g16.b01/AVX2/g16/l716.exe)
 Dipole        =-4.45791089D-01-1.76254839D+00-2.03881524D-15
 -------------------------------------------------------------------
 Center     Atomic                   Forces (Hartrees/Bohr)
 Number     Number              X              Y              Z
 -------------------------------------------------------------------
      1        6          -0.000320609    0.000008361   -0.000000000
      2        6           0.000055278   -0.000032871    0.000000000
      3        6          -0.000090408   -0.000109037   -0.000000000
      4        6           0.000242213    0.000184392    0.000000000
      5        7           0.000147955    0.000029199    0.000000000
      6        1           0.000000664   -0.000015868   -0.000000000
      7        1           0.000027795   -0.000005934   -0.000000000
      8        8          -0.000145899   -0.000074826   -0.000000000
      9        8           0.000123601   -0.000013719    0.000000000
     10        7          -0.000011431    0.000044670    0.000000000
     11        1           0.000009775   -0.000035690   -0.000000000
     12        1          -0.000038933    0.000021324    0.000000000
 -------------------------------------------------------------------
 Cartesian Forces:  Max     0.000320609 RMS     0.000089961
 Leave Link  716 at Tue Nov 22 10:49:29 2022, MaxMem=   671088640 cpu:               0.8 elap:               0.0
 (Enter /shared/gaussian/g16.b01/AVX2/g16/l103.exe)

 GradGradGradGradGradGradGradGradGradGradGradGradGradGradGradGradGradGrad
 Berny optimization.
 FormGI is forming the generalized inverse of G from B-inverse, IUseBI=4.
 Internal  Forces:  Max     0.000162594 RMS     0.000044492
 Search for a local minimum.
 Step number   1 out of a maximum of   64
 All quantities printed in internal units (Hartrees-Bohrs-Radians)
 RMS Force = .44492D-04 SwitMx=.10000D-02 MixMth= 2
 Mixed Optimization -- En-DIIS/RFO-DIIS
 Second derivative matrix not updated -- first step.
 ITU=  0
     Eigenvalues ---    0.01478   0.01663   0.01804   0.01920   0.01934
     Eigenvalues ---    0.01988   0.02122   0.02329   0.02566   0.16000
     Eigenvalues ---    0.16000   0.16000   0.16000   0.22000   0.23391
     Eigenvalues ---    0.23450   0.25000   0.25000   0.35745   0.36179
     Eigenvalues ---    0.36393   0.42772   0.45655   0.46290   0.46439
     Eigenvalues ---    0.47796   0.49847   0.55944   1.00361   1.01297
 RFO step:  Lambda=-2.36188974D-07 EMin= 1.47800094D-02
 Linear search not attempted -- first point.
 Iteration  1 RMS(Cart)=  0.00012526 RMS(Int)=  0.00000001
 Iteration  2 RMS(Cart)=  0.00000001 RMS(Int)=  0.00000000
 ITry= 1 IFail=0 DXMaxC= 4.72D-04 DCOld= 1.00D+10 DXMaxT= 3.00D-01 DXLimC= 3.00D+00 Rises=F
 Variable       Old X    -DE/DX   Delta X   Delta X   Delta X     New X
                                 (Linear)    (Quad)   (Total)
    R1        2.60398   0.00016   0.00000   0.00033   0.00033   2.60431
    R2        2.28124  -0.00011   0.00000  -0.00011  -0.00011   2.28112
    R3        2.61776   0.00004   0.00000   0.00009   0.00009   2.61785
    R4        2.53064  -0.00001   0.00000  -0.00002  -0.00002   2.53062
    R5        2.04483   0.00002   0.00000   0.00004   0.00004   2.04487
    R6        2.59306   0.00006   0.00000   0.00012   0.00012   2.59318
    R7        2.75209   0.00012   0.00000   0.00031   0.00031   2.75240
    R8        2.03802   0.00003   0.00000   0.00007   0.00007   2.03810
    R9        2.65143   0.00004   0.00000   0.00010   0.00010   2.65153
   R10        2.28495  -0.00016   0.00000  -0.00016  -0.00016   2.28478
   R11        1.91223   0.00002   0.00000   0.00005   0.00005   1.91228
   R12        1.90505   0.00001   0.00000   0.00002   0.00002   1.90507
    A1        2.16426  -0.00004   0.00000  -0.00015  -0.00015   2.16411
    A2        1.97562  -0.00004   0.00000  -0.00014  -0.00014   1.97549
    A3        2.14330   0.00007   0.00000   0.00029   0.00029   2.14359
    A4        2.14011  -0.00001   0.00000  -0.00001  -0.00001   2.14009
    A5        2.12984   0.00001   0.00000   0.00000   0.00000   2.12984
    A6        2.01324  -0.00000   0.00000   0.00001   0.00001   2.01325
    A7        2.08936   0.00003   0.00000   0.00008   0.00008   2.08945
    A8        2.13185  -0.00000   0.00000   0.00001   0.00001   2.13186
    A9        2.06198  -0.00002   0.00000  -0.00010  -0.00010   2.06188
   A10        1.98459  -0.00004   0.00000  -0.00016  -0.00016   1.98443
   A11        2.19830   0.00004   0.00000   0.00018   0.00018   2.19848
   A12        2.10029  -0.00000   0.00000  -0.00002  -0.00002   2.10028
   A13        2.23244   0.00002   0.00000   0.00014   0.00014   2.23258
   A14        2.01987  -0.00005   0.00000  -0.00030  -0.00030   2.01957
   A15        2.03087   0.00002   0.00000   0.00016   0.00016   2.03103
   A16        2.15451   0.00002   0.00000   0.00007   0.00007   2.15459
   A17        2.01030   0.00002   0.00000   0.00018   0.00018   2.01048
   A18        2.11837  -0.00004   0.00000  -0.00025  -0.00025   2.11812
    D1        3.14159  -0.00000   0.00000  -0.00000   0.00000   3.14159
    D2        0.00000  -0.00000   0.00000  -0.00000  -0.00000   0.00000
    D3        0.00000   0.00000   0.00000   0.00000   0.00000   0.00000
    D4        3.14159   0.00000   0.00000   0.00000   0.00000   3.14159
    D5        0.00000  -0.00000   0.00000  -0.00000  -0.00000   0.00000
    D6        3.14159  -0.00000   0.00000  -0.00000   0.00000   3.14159
    D7        3.14159   0.00000   0.00000   0.00000   0.00000   3.14159
    D8        0.00000   0.00000   0.00000   0.00000   0.00000   0.00000
    D9        3.14159   0.00000   0.00000   0.00000   0.00000   3.14159
   D10        0.00000  -0.00000   0.00000  -0.00000  -0.00000   0.00000
   D11        0.00000   0.00000   0.00000   0.00000   0.00000   0.00000
   D12        3.14159   0.00000   0.00000   0.00000   0.00000   3.14159
   D13        0.00000  -0.00000   0.00000  -0.00000  -0.00000   0.00000
   D14        3.14159  -0.00000   0.00000  -0.00000   0.00000   3.14159
   D15        3.14159   0.00000   0.00000   0.00000   0.00000   3.14159
   D16        0.00000   0.00000   0.00000   0.00000  -0.00000   0.00000
   D17        0.00000  -0.00000   0.00000  -0.00000  -0.00000   0.00000
   D18        3.14159  -0.00000   0.00000  -0.00000   0.00000   3.14159
   D19        3.14159  -0.00000   0.00000  -0.00000   0.00000   3.14159
   D20        0.00000   0.00000   0.00000   0.00000   0.00000   0.00000
   D21        0.00000  -0.00000   0.00000  -0.00000   0.00000   0.00000
   D22        3.14159  -0.00000   0.00000  -0.00000   0.00000   3.14159
   D23        3.14159  -0.00000   0.00000  -0.00000   0.00000   3.14159
   D24        0.00000  -0.00000   0.00000  -0.00000  -0.00000   0.00000
         Item               Value     Threshold  Converged?
 Maximum Force            0.000163     0.000450     YES
 RMS     Force            0.000044     0.000300     YES
 Maximum Displacement     0.000472     0.001800     YES
 RMS     Displacement     0.000125     0.001200     YES
 Predicted change in Energy=-1.180944D-07
 Optimization completed.
    -- Stationary point found.
                           ----------------------------
                           !   Optimized Parameters   !
                           ! (Angstroms and Degrees)  !
 --------------------------                            --------------------------
 ! Name  Definition              Value          Derivative Info.                !
 --------------------------------------------------------------------------------
 ! R1    R(1,5)                  1.378          -DE/DX =    0.0002              !
 ! R2    R(1,9)                  1.2072         -DE/DX =   -0.0001              !
 ! R3    R(1,10)                 1.3853         -DE/DX =    0.0                 !
 ! R4    R(2,3)                  1.3392         -DE/DX =    0.0                 !
 ! R5    R(2,6)                  1.0821         -DE/DX =    0.0                 !
 ! R6    R(2,10)                 1.3722         -DE/DX =    0.0001              !
 ! R7    R(3,4)                  1.4563         -DE/DX =    0.0001              !
 ! R8    R(3,7)                  1.0785         -DE/DX =    0.0                 !
 ! R9    R(4,5)                  1.4031         -DE/DX =    0.0                 !
 ! R10   R(4,8)                  1.2091         -DE/DX =   -0.0002              !
 ! R11   R(5,12)                 1.0119         -DE/DX =    0.0                 !
 ! R12   R(10,11)                1.0081         -DE/DX =    0.0                 !
 ! A1    A(5,1,9)              124.0031         -DE/DX =    0.0                 !
 ! A2    A(5,1,10)             113.1948         -DE/DX =    0.0                 !
 ! A3    A(9,1,10)             122.8021         -DE/DX =    0.0001              !
 ! A4    A(3,2,6)              122.619          -DE/DX =    0.0                 !
 ! A5    A(3,2,10)             122.0306         -DE/DX =    0.0                 !
 ! A6    A(6,2,10)             115.3504         -DE/DX =    0.0                 !
 ! A7    A(2,3,4)              119.7117         -DE/DX =    0.0                 !
 ! A8    A(2,3,7)              122.1457         -DE/DX =    0.0                 !
 ! A9    A(4,3,7)              118.1426         -DE/DX =    0.0                 !
 ! A10   A(3,4,5)              113.7088         -DE/DX =    0.0                 !
 ! A11   A(3,4,8)              125.9533         -DE/DX =    0.0                 !
 ! A12   A(5,4,8)              120.338          -DE/DX =    0.0                 !
 ! A13   A(1,5,4)              127.9096         -DE/DX =    0.0                 !
 ! A14   A(1,5,12)             115.73           -DE/DX =    0.0                 !
 ! A15   A(4,5,12)             116.3604         -DE/DX =    0.0                 !
 ! A16   A(1,10,2)             123.4446         -DE/DX =    0.0                 !
 ! A17   A(1,10,11)            115.1818         -DE/DX =    0.0                 !
 ! A18   A(2,10,11)            121.3736         -DE/DX =    0.0                 !
 ! D1    D(9,1,5,4)            180.0            -DE/DX =    0.0                 !
 ! D2    D(9,1,5,12)             0.0            -DE/DX =    0.0                 !
 ! D3    D(10,1,5,4)             0.0            -DE/DX =    0.0                 !
 ! D4    D(10,1,5,12)          180.0            -DE/DX =    0.0                 !
 ! D5    D(5,1,10,2)             0.0            -DE/DX =    0.0                 !
 ! D6    D(5,1,10,11)          180.0            -DE/DX =    0.0                 !
 ! D7    D(9,1,10,2)           180.0            -DE/DX =    0.0                 !
 ! D8    D(9,1,10,11)            0.0            -DE/DX =    0.0                 !
 ! D9    D(6,2,3,4)            180.0            -DE/DX =    0.0                 !
 ! D10   D(6,2,3,7)              0.0            -DE/DX =    0.0                 !
 ! D11   D(10,2,3,4)             0.0            -DE/DX =    0.0                 !
 ! D12   D(10,2,3,7)           180.0            -DE/DX =    0.0                 !
 ! D13   D(3,2,10,1)             0.0            -DE/DX =    0.0                 !
 ! D14   D(3,2,10,11)          180.0            -DE/DX =    0.0                 !
 ! D15   D(6,2,10,1)           180.0            -DE/DX =    0.0                 !
 ! D16   D(6,2,10,11)            0.0            -DE/DX =    0.0                 !
 ! D17   D(2,3,4,5)              0.0            -DE/DX =    0.0                 !
 ! D18   D(2,3,4,8)            180.0            -DE/DX =    0.0                 !
 ! D19   D(7,3,4,5)            180.0            -DE/DX =    0.0                 !
 ! D20   D(7,3,4,8)              0.0            -DE/DX =    0.0                 !
 ! D21   D(3,4,5,1)              0.0            -DE/DX =    0.0                 !
 ! D22   D(3,4,5,12)           180.0            -DE/DX =    0.0                 !
 ! D23   D(8,4,5,1)            180.0            -DE/DX =    0.0                 !
 ! D24   D(8,4,5,12)             0.0            -DE/DX =    0.0                 !
 --------------------------------------------------------------------------------
 Lowest energy point so far.  Saving SCF results.
 Largest change from initial coordinates is atom    0       0.000 Angstoms.
 GradGradGradGradGradGradGradGradGradGradGradGradGradGradGradGradGradGrad

 Leave Link  103 at Tue Nov 22 10:49:29 2022, MaxMem=   671088640 cpu:               0.9 elap:               0.0
 (Enter /shared/gaussian/g16.b01/AVX2/g16/l202.exe)
                          Input orientation:                          
 ---------------------------------------------------------------------
 Center     Atomic      Atomic             Coordinates (Angstroms)
 Number     Number       Type             X           Y           Z
 ---------------------------------------------------------------------
      1          6           0       -1.228274    0.360852    0.000000
      2          6           0        0.055847   -1.700239    0.000000
      3          6           0        1.234753   -1.065003    0.000000
      4          6           0        1.270191    0.390911    0.000000
      5          7           0       -0.000359    0.986164    0.000000
      6          1           0       -0.025317   -2.779266    0.000000
      7          1           0        2.173067   -1.596674    0.000000
      8          8           0        2.265971    1.076801    0.000000
      9          8           0       -2.283998    0.946280    0.000000
     10          7           0       -1.136647   -1.021375    0.000000
     11          1           0       -2.018580   -1.509722    0.000000
     12          1           0       -0.022563    1.997828    0.000000
 ---------------------------------------------------------------------
                    Distance matrix (angstroms):
                    1          2          3          4          5
     1  C    0.000000
     2  C    2.428387   0.000000
     3  C    2.845973   1.339158   0.000000
     4  C    2.498646   2.418169   1.456345   0.000000
     5  N    1.377966   2.686991   2.394324   1.403076   0.000000
     6  H    3.362655   1.082075   2.127551   3.424670   3.765513
     7  H    3.924414   2.119751   1.078474   2.183044   3.375623
     8  O    3.566838   3.549169   2.377127   1.209141   2.268142
     9  O    1.207178   3.532554   4.053007   3.597318   2.283987
    10  N    1.385261   1.372187   2.371801   2.790595   2.306808
    11  H    2.030672   2.083157   3.283588   3.798476   3.209776
    12  H    2.033084   3.698898   3.310857   2.062376   1.011908
                    6          7          8          9         10
     6  H    0.000000
     7  H    2.496280   0.000000
     8  O    4.485449   2.675089   0.000000
     9  O    4.356757   5.131476   4.551841   0.000000
    10  N    2.079720   3.359342   3.997518   2.277736   0.000000
    11  H    2.363226   4.192549   5.004746   2.470302   1.008111
    12  H    4.777095   4.212035   2.466917   2.493961   3.218194
                   11         12
    11  H    0.000000
    12  H    4.035714   0.000000
 Symmetry turned off by external request.
 Stoichiometry    C4H4N2O2
 Framework group  CS[SG(C4H4N2O2)]
 Deg. of freedom    21
 Full point group                 CS      NOp   2
 Rotational constants (GHZ):           3.9115689           2.0340469           1.3381818
 Leave Link  202 at Tue Nov 22 10:49:29 2022, MaxMem=   671088640 cpu:               0.2 elap:               0.0
 (Enter /shared/gaussian/g16.b01/AVX2/g16/l9999.exe)
 1\1\GINC-BAKU1\FOpt\RCAM-B3LYP\6-311+G(d,p)\C4H4N2O2\ROOT\22-Nov-2022\
 0\\#p opt cam-b3lyp/6-311+G(d,p) nosymm\\Uracil\\0,1\C,-1.228274,0.360
 852,0.\C,0.055847,-1.700239,0.\C,1.234753,-1.065003,0.\C,1.270191,0.39
 0911,0.\N,-0.000359,0.986164,0.\H,-0.025317,-2.779266,0.\H,2.173067,-1
 .596674,0.\O,2.265971,1.076801,0.\O,-2.283998,0.94628,0.\N,-1.136647,-
 1.021375,0.\H,-2.01858,-1.509722,0.\H,-0.022563,1.997828,0.\\Version=E
 S64L-G16RevB.01\HF=-414.7700719\RMSD=8.407e-09\RMSF=8.996e-05\Dipole=-
 0.4457911,-1.7625484,0.\Quadrupole=-8.2011711,7.156313,1.0448581,1.235
 4185,0.,0.\PG=CS [SG(C4H4N2O2)]\\@


 I WOULD TAKE COUNSEL OF MYSELF.
 I WOULD STOP AND LOOK WITHIN
 AND LOOKING WITHIN, LOOK BACK, ALSO
 THAT I MAY LOOK AHEAD WITH CLEARER UNDERSTANDING
 OF THE WAY I HAVE BEEN MOVING, AND IN WHAT DIRECTION.
 I NEED TO KNOW IF I AM GOING FORWARD OR RETREATING,
 WHETHER I HAVE BEEN WASTING, OR ENJOYING
 THE PRECIOUS MOMENTS OF LIFE.  THERE HAVE BEEN FRICTIONS,
 ANNOYANCES AND SOMETIMES WRATH,
 BUT WERE THEY BECAUSE I WAS RIGHT AND OTHERS WRONG.....
 HAVE I HAD MY THOUGHTS TOO SHARPLY FOCUSED
 ON THAT WHICH PLEASED ME, SERVED MY SELF-ESTEEM,
 UNDERGIRDED MY SECURITY,
 OF WHICH I DID NOT INQUIRE WHETHER IT SERVED OR HAMPERED OTHERS.....
 HAVE I BEEN TRYING TO STOP THE CLOCK
 TO HOLD THE WORLD
 IN PERPETUATION OF WHAT WAS AN IS ALREADY SLIPPING AWAY.....
 HAVE I BEEN CRITICAL OF OTHERS FOR WHAT REALLY NEEDED CHANGING IN ME...
 LET ME INDEED TAKE COUNSEL OF MYSELF
 AND SET MY DIRECTIONS STRAIGHT.

                          R.T. WESTON AS ADAPTED BY D. OSBORN 1967
 Job cpu time:       0 days  0 hours  3 minutes 29.4 seconds.
 Elapsed time:       0 days  0 hours  0 minutes  7.8 seconds.
 File lengths (MBytes):  RWF=     21 Int=      0 D2E=      0 Chk=      4 Scr=      1
 Normal termination of Gaussian 16 at Tue Nov 22 10:49:29 2022.
