   This run of MOLCAS is using the pymolcas driver

                             OPE
                             OPE          NMOL  CASOP  ENMOLC A   SO
                 OPE        NMOLC        AS  OP EN  MO LC     AS  OP
                OPENM       OL CA        SO  PE NM  OL CA     SOP EN
                OP EN      MO   LC       AS  OP ENMOL  CASO   PENMOL
                OP  EN     MO   LC       AS  OP EN     MO     LC ASO
               OP   E  NMOL  C  AS       OP  EN MO     LC     AS  OP
               OP  E   NMO   LC AS        OPEN  MO     LCASOP EN   M
               O  PEN   MO  LCA  SO
            OPE   NMO   L   CAS    OP
        OPENMOL  CASOP     ENMOL   CASOPE
     OPENMOLCA   SOPENMOLCASOPEN   MOLCASOPE
    OPENMOLCAS   OP           EN   MOL    CAS
    OPENMOLCAS       OP  ENM        O     LCA
    OPENMOLCAS    OPEN  MOLCASO     P  E  NMO
    OPENMOLCAS     OP               E  N  MOL
    OPENMOLCA   SO           PENM   O  L  CAS    OPEN    MO    LCAS
    OPENMOLCA   SOP           ENM   O  L  CAS   OP  EN  MOLC  AS   O
    OPENMOLCA   SOPE           NM      O  LCA   S      OP  EN MO
    OPENMOLC                AS         O  PEN   M      OL  CA  SOPE
    OPENMO        LCASOPE  NMOL        C  ASO   P      ENMOLC     AS
    OPE     NMO      LCA  SO     P     E   NM   OL  CA SO  PE N   MO
          OPENMOLCA            SOPE   NMO        LCAS  O    P  ENMO
     OPENMOLCASOPENMOLCASOPENMOLCASOPENMOLCA
        OPENMOLCASOPENMOLCASOPENMOLCASOPE
            OPENMOLCASOPENMOLCASOPENM
               OPENMOLCASOPENMOLCA        version: 22.06
                   OPENMOLCASO
                       OPE                tag: 360-g995f53266

 OpenMolcas is free software; you can redistribute it and/or modify it
 under the terms of the GNU Lesser General Public License version 2.1.
 OpenMolcas is distributed in the hope that it will be useful, but it
 is provided "as is" and without any express or implied warranties.
 For more details see the full text of the license in the file
 LICENSE or in <http://www.gnu.org/licenses/>.

                 Copyright (C) The OpenMolcas Authors
           For the author list and the recommended citation,
                   consult the file CONTRIBUTORS.md

           *************************************************
           * pymolcas version py2.06                       *
           *   build bf02a7b0d12655ada6bc2259076d6962      *
           *   (after the EMIL interpreter by V. Veryazov) *
           *************************************************

configuration info
------------------
Host name: qcexmaster (Linux)
C Compiler ID: GNU
C flags: -std=gnu99
Fortran Compiler ID: GNU
Fortran flags: -fno-aggressive-loop-optimizations -cpp -fdefault-integer-8 -fmax-stack-var-size=1048576
Definitions: _MOLCAS_;_I8_;_LINUX_
Parallel: OFF (GA=OFF)


   -------------------------------------------------------------------------------------
  |
  |           Project: caspt2_ES2
  |    Submitted from: /scr/marlenne/_caspt2_ES2/Work
  |      Scratch area: /scr/marlenne/_caspt2_ES2/Work
  |   Save outputs to: /home/marlenne/thymine/Thymine/MOLCAS/4.Excited_State/2.ES_planar
  |            Molcas: /soft/OPENMOLCAS/CASPT2-GRADIENTS/OpenMolcas/build
  |
  | Scratch area is NOT empty
  |
  |    MOLCAS_DRIVER = /soft/bin/pymolcas
  |    MOLCAS_NPROCS = 1
  |     MOLCAS_PRINT = 3
  |    MOLCAS_SOURCE = /soft/OPENMOLCAS/CASPT2-GRADIENTS/OpenMolcas/build
  | MOLCAS_STRUCTURE = 0
  |
   -------------------------------------------------------------------------------------

++ ---------   Input file   ---------

&GATEWAY
    Coord=$HomeDir/scf.Opt.xyz
    Basis=6-31G**
    RICD
    CDTH=1.0D-08
    Group=NoSym

&SEWARD
    DoAnal

>>> COPY $HomeDir/cas2.RasOrb INPORB

&RASSCF
Title
    Thymine 2 ES first bright state
spin
 1
Nactel
 14 0 0
Inactive
 26
Ras2
 10
Lumorb
CIRoot
6 6 1

&CASPT2
IMAG
 0.2
IPEA
 0.0
xmul=all
convergence
 1.0d-08
thresholds
 1.0d-9 1.0d-07
grdt
rlxroot
 3

&ALASKA

&SLAPAF

&MCKINLEY
Perturbation
Hessian
SHOWHessian

-- ----------------------------------

--- Start Module: gateway at Tue Apr 18 16:59:49 2023 ---

()()()()()()()()()()()()()()()()()()()()()()()()()()()()()()()()()()()()()()()()()()()()()()()()()()

                                              &GATEWAY

                                   only a single process is used
                       available to each process: 4.0 GB of memory, 1 thread?
                                             pid: 14693
()()()()()()()()()()()()()()()()()()()()()()()()()()()()()()()()()()()()()()()()()()()()()()()()()()



 Basis Set     1 Label: N.6-31G**
 Basis set is read from library:basis_library 
 Basis Set Reference(s):
     P.C. Hariharan, J.A. Pople. Theor. Chim. Acta 28 (1973) 213-222. doi:10.1007/bf00533485
     NITROGEN (10s,4p,1d) -> [3s,2p,1d]




 Basis Set     2 Label: C.6-31G**
 Basis set is read from library:basis_library 
 Basis Set Reference(s):
     P.C. Hariharan, J.A. Pople. Theor. Chim. Acta 28 (1973) 213-222. doi:10.1007/bf00533485
     CARBON (10s,4p,1d) -> [3s,2p,1d]




 Basis Set     3 Label: N.6-31G**
 Basis set is read from library:basis_library 
 Basis Set Reference(s):
     P.C. Hariharan, J.A. Pople. Theor. Chim. Acta 28 (1973) 213-222. doi:10.1007/bf00533485
     NITROGEN (10s,4p,1d) -> [3s,2p,1d]




 Basis Set     4 Label: C.6-31G**
 Basis set is read from library:basis_library 
 Basis Set Reference(s):
     P.C. Hariharan, J.A. Pople. Theor. Chim. Acta 28 (1973) 213-222. doi:10.1007/bf00533485
     CARBON (10s,4p,1d) -> [3s,2p,1d]




 Basis Set     5 Label: O.6-31G**
 Basis set is read from library:basis_library 
 Basis Set Reference(s):
     P.C. Hariharan, J.A. Pople. Theor. Chim. Acta 28 (1973) 213-222. doi:10.1007/bf00533485
     OXYGEN (10s,4p,1d) -> [3s,2p,1d]




 Basis Set     6 Label: H.6-31G**
 Basis set is read from library:basis_library 
 Basis Set Reference(s):
     P.C. Hariharan, J.A. Pople. Theor. Chim. Acta 28 (1973) 213-222. doi:10.1007/bf00533485
     HYDROGEN (4s,1p) -> [2s,1p]




 Basis Set     7 Label: C.6-31G**
 Basis set is read from library:basis_library 
 Basis Set Reference(s):
     P.C. Hariharan, J.A. Pople. Theor. Chim. Acta 28 (1973) 213-222. doi:10.1007/bf00533485
     CARBON (10s,4p,1d) -> [3s,2p,1d]




 Basis Set     8 Label: H.6-31G**
 Basis set is read from library:basis_library 
 Basis Set Reference(s):
     P.C. Hariharan, J.A. Pople. Theor. Chim. Acta 28 (1973) 213-222. doi:10.1007/bf00533485
     HYDROGEN (4s,1p) -> [2s,1p]




 Basis Set    10 Label: N.6-31G**....acCD-aux-basis.
 On-the-fly basis set generation


 Basis Set    11 Label: N.6-31G**....acCD-aux-basis.
 On-the-fly basis set generation


 Basis Set    12 Label: C.6-31G**....acCD-aux-basis.
 On-the-fly basis set generation


 Basis Set    13 Label: C.6-31G**....acCD-aux-basis.
 On-the-fly basis set generation


 Basis Set    14 Label: N.6-31G**....acCD-aux-basis.
 On-the-fly basis set generation


 Basis Set    15 Label: N.6-31G**....acCD-aux-basis.
 On-the-fly basis set generation


 Basis Set    16 Label: C.6-31G**....acCD-aux-basis.
 On-the-fly basis set generation


 Basis Set    17 Label: C.6-31G**....acCD-aux-basis.
 On-the-fly basis set generation


 Basis Set    18 Label: O.6-31G**....acCD-aux-basis.
 On-the-fly basis set generation


 Basis Set    19 Label: O.6-31G**....acCD-aux-basis.
 On-the-fly basis set generation


 Basis Set    20 Label: H.6-31G**....acCD-aux-basis.
 On-the-fly basis set generation


 Basis Set    21 Label: C.6-31G**....acCD-aux-basis.
 On-the-fly basis set generation


 Basis Set    22 Label: C.6-31G**....acCD-aux-basis.
 On-the-fly basis set generation


 Basis Set    23 Label: H.6-31G**....acCD-aux-basis.
 On-the-fly basis set generation

  Weights used for alignment and distance                     
  mat. size =    15x    1
       14.0030740044299993
       12.0000000000000000
       14.0030740044299993
       12.0000000000000000
       12.0000000000000000
       12.0000000000000000
       15.9949146195700003
       15.9949146195700003
        1.0078250322300000
        1.0078250322300000
       12.0000000000000000
        1.0078250322300000
        1.0078250322300000
        1.0078250322300000
        1.0078250322300000


++    Symmetry information:
      ---------------------

                    Character Table for C1 

                             E  
                    a        1  x, y, xy, Rz, z, xz, Ry, yz, Rx, I
--


++    Basis set information:
      ----------------------


      Basis set label: N.6-31G**.........

      Electronic valence basis set:
      ------------------
      Associated Effective Charge   7.000000 au
      Associated Actual Charge      7.000000 au
      Nuclear Model: Point charge

      Shell  nPrim  nBasis  Cartesian Spherical Contaminant
         s      10       3        X                  
         p       4       2        X                  
         d       1       1        X                  

       Label   Cartesian Coordinates / Bohr

 N1                 0.3023873604       -3.1235441662        0.0000003968


      Basis set label: C.6-31G**.........

      Electronic valence basis set:
      ------------------
      Associated Effective Charge   6.000000 au
      Associated Actual Charge      6.000000 au
      Nuclear Model: Point charge

      Shell  nPrim  nBasis  Cartesian Spherical Contaminant
         s      10       3        X                  
         p       4       2        X                  
         d       1       1        X                  

       Label   Cartesian Coordinates / Bohr

 C2                 2.5450336527       -1.8395375121       -0.0000050267


      Basis set label: N.6-31G**.........

      Electronic valence basis set:
      ------------------
      Associated Effective Charge   7.000000 au
      Associated Actual Charge      7.000000 au
      Nuclear Model: Point charge

      Shell  nPrim  nBasis  Cartesian Spherical Contaminant
         s      10       3        X                  
         p       4       2        X                  
         d       1       1        X                  

       Label   Cartesian Coordinates / Bohr

 N3                 2.2575749208        0.7336630943        0.0000000189


      Basis set label: C.6-31G**.........

      Electronic valence basis set:
      ------------------
      Associated Effective Charge   6.000000 au
      Associated Actual Charge      6.000000 au
      Nuclear Model: Point charge

      Shell  nPrim  nBasis  Cartesian Spherical Contaminant
         s      10       3        X                  
         p       4       2        X                  
         d       1       1        X                  

       Label   Cartesian Coordinates / Bohr

 C4                 0.0180344879        2.0941706997        0.0000037606
 C5                -2.2925491782        0.5476933323       -0.0000009638
 C6                -2.0211298937       -1.9503889788        0.0000001323


      Basis set label: O.6-31G**.........

      Electronic valence basis set:
      ------------------
      Associated Effective Charge   8.000000 au
      Associated Actual Charge      8.000000 au
      Nuclear Model: Point charge

      Shell  nPrim  nBasis  Cartesian Spherical Contaminant
         s      10       3        X                  
         p       4       2        X                  
         d       1       1        X                  

       Label   Cartesian Coordinates / Bohr

 O7                 4.5558168990       -2.8661501832        0.0000011716
 O8                 0.0495383578        4.3525015865       -0.0000006236


      Basis set label: H.6-31G**.........

      Electronic valence basis set:
      ------------------
      Associated Effective Charge   1.000000 au
      Associated Actual Charge      1.000000 au
      Nuclear Model: Point charge

      Shell  nPrim  nBasis  Cartesian Spherical Contaminant
         s       4       2        X                  
         p       1       1        X                  

       Label   Cartesian Coordinates / Bohr

 H9                 0.4404980131       -4.9961720677        0.0000006236
 H10                3.8522085948        1.7376534194        0.0000005669


      Basis set label: C.6-31G**.........

      Electronic valence basis set:
      ------------------
      Associated Effective Charge   6.000000 au
      Associated Actual Charge      6.000000 au
      Nuclear Model: Point charge

      Shell  nPrim  nBasis  Cartesian Spherical Contaminant
         s      10       3        X                  
         p       4       2        X                  
         d       1       1        X                  

       Label   Cartesian Coordinates / Bohr

 C11               -4.7918406873        1.8936932645       -0.0000003213


      Basis set label: H.6-31G**.........

      Electronic valence basis set:
      ------------------
      Associated Effective Charge   1.000000 au
      Associated Actual Charge      1.000000 au
      Nuclear Model: Point charge

      Shell  nPrim  nBasis  Cartesian Spherical Contaminant
         s       4       2        X                  
         p       1       1        X                  

       Label   Cartesian Coordinates / Bohr

 H12               -3.6102856484       -3.2119934967        0.0000013606
 H13               -6.3412067089        0.5533062535       -0.0000005102
 H14               -4.9693561170        3.0965382413        1.6489874507
 H15               -4.9693560604        3.0965383547       -1.6489879988
--


++    Molecular structure info:
      -------------------------

                    ************************************************ 
                    **** Cartesian Coordinates / Bohr, Angstrom **** 
                    ************************************************ 

     Center  Label                x              y              z                     x              y              z
        1      N1               0.302387      -3.123544       0.000000              0.160017      -1.652908       0.000000
        2      C2               2.545034      -1.839538      -0.000005              1.346774      -0.973441      -0.000003
        3      N3               2.257575       0.733663       0.000000              1.194657       0.388238       0.000000
        4      C4               0.018034       2.094171       0.000004              0.009543       1.108187       0.000002
        5      C5              -2.292549       0.547693      -0.000001             -1.213165       0.289827      -0.000001
        6      C6              -2.021130      -1.950389       0.000000             -1.069536      -1.032101       0.000000
        7      O7               4.555817      -2.866150       0.000001              2.410834      -1.516701       0.000001
        8      O8               0.049538       4.352502      -0.000001              0.026215       2.303245      -0.000000
        9      H9               0.440498      -4.996172       0.000001              0.233102      -2.643860       0.000000
       10      H10              3.852209       1.737653       0.000001              2.038501       0.919527       0.000000
       11      C11             -4.791841       1.893693      -0.000000             -2.535733       1.002099      -0.000000
       12      H12             -3.610286      -3.211993       0.000001             -1.910481      -1.699714       0.000001
       13      H13             -6.341207       0.553306      -0.000001             -3.355622       0.292797      -0.000000
       14      H14             -4.969356       3.096538       1.648987             -2.629670       1.638617       0.872607
       15      H15             -4.969356       3.096538      -1.648988             -2.629670       1.638618      -0.872607

                    *************************************** 
                    *    InterNuclear Distances / Bohr    * 
                    *************************************** 

               1 N1            2 C2            3 N3            4 C4            5 C5            6 C6    
    1 N1       0.000000
    2 C2       2.584209        0.000000
    3 N3       4.324443        2.589207        0.000000
    4 C4       5.225457        4.675445        2.620405        0.000000
    5 C5       4.495740        5.394542        4.553923        2.780358        0.000000
    6 C6       2.602888        4.567509        5.050886        4.529531        2.512784        0.000000
    7 O7       4.261210        2.257694        4.270898        6.722816        7.652088        6.640395
    8 O8       7.480320        6.675990        4.239271        2.258551        4.467879        6.634312
    9 H9       1.877714        3.793865        6.011055        7.102917        6.180938        3.916172
   10 H10      6.019342        3.808543        1.884371        3.850714        6.258918        6.935255
   11 C11      7.150093        8.232055        7.144224        4.814051        2.838692        4.738545
   12 H12      3.913673        6.306472        7.071067        6.428070        3.983927        2.029054
   13 H13      7.593192        9.202770        8.600673        6.543257        4.048661        4.993151
   14 H14      8.318645        9.140573        7.780159        5.347705        4.047353        6.073111
   15 H15      8.318646        9.140571        7.780159        5.347708        4.047353        6.073111

               7 O7            8 O8            9 H9           10 H10          11 C11          12 H12   
    7 O7       0.000000
    8 O8       8.509729        0.000000
    9 H9       4.633880        9.356845        0.000000
   10 H10      4.657260        4.614947        7.548786        0.000000
   11 C11     10.489748        5.429981        8.651451        8.645458        0.000000
   12 H12      8.173423        8.403327        4.426301        8.954765        5.240621        0.000000
   13 H13     11.420937        7.434750        8.762889       10.261988        2.048700        4.651388
   14 H14     11.357893        5.430093        9.873076        9.076659        2.048782        6.660616
   15 H15     11.357893        5.430092        9.873077        9.076659        2.048782        6.660617

              13 H13          14 H14          15 H15   
   13 H13      0.000000
   14 H14      3.327035        0.000000
   15 H15      3.327035        3.297975        0.000000

                    ******************************************* 
                    *    InterNuclear Distances / Angstrom    * 
                    ******************************************* 

               1 N1            2 C2            3 N3            4 C4            5 C5            6 C6    
    1 N1       0.000000
    2 C2       1.367504        0.000000
    3 N3       2.288397        1.370149        0.000000
    4 C4       2.765193        2.474139        1.386659        0.000000
    5 C5       2.379043        2.854668        2.409832        1.471302        0.000000
    6 C6       1.377389        2.417022        2.672814        2.396925        1.329708        0.000000
    7 O7       2.254935        1.194720        2.260062        3.557561        4.049310        3.513946
    8 O8       3.958415        3.532782        2.243326        1.195174        2.364300        3.510727
    9 H9       0.993643        2.007627        3.180913        3.758702        3.270811        2.072349
   10 H10      3.185298        2.015394        0.997166        2.037710        3.312077        3.669979
   11 C11      3.783666        4.356216        3.780560        2.547486        1.502171        2.507530
   12 H12      2.071026        3.337241        3.741848        3.401588        2.108203        1.073729
   13 H13      4.018144        4.869896        4.551280        3.462542        2.142459        2.642262
   14 H14      4.402038        4.836983        4.117083        2.829884        2.141767        3.213752
   15 H15      4.402038        4.836982        4.117083        2.829885        2.141767        3.213752

               7 O7            8 O8            9 H9           10 H10          11 C11          12 H12   
    7 O7       0.000000
    8 O8       4.503154        0.000000
    9 H9       2.452144        4.951429        0.000000
   10 H10      2.464516        2.442125        3.994646        0.000000
   11 C11      5.550936        2.873422        4.578151        4.574979        0.000000
   12 H12      4.325189        4.446849        2.342298        4.738658        2.773217        0.000000
   13 H13      6.043700        3.934300        4.637121        5.430410        1.084125        2.461409
   14 H14      6.010338        2.873481        5.224607        4.803161        1.084169        3.524646
   15 H15      6.010338        2.873481        5.224607        4.803161        1.084169        3.524646

              13 H13          14 H14          15 H15   
   13 H13      0.000000
   14 H14      1.760591        0.000000
   15 H15      1.760591        1.745213        0.000000

                    ************************************** 
                    *    Valence Bond Angles / Degree    * 
                    ************************************** 
                          Atom centers                 Phi
                      2 C2       1 N1       6 C6       123.42
                      2 C2       1 N1       9 H9       115.57
                      6 C6       1 N1       9 H9       121.01
                      1 N1       2 C2       3 N3       113.42
                      1 N1       2 C2       7 O7       123.16
                      3 N3       2 C2       7 O7       123.42
                      2 C2       3 N3       4 C4       127.65
                      2 C2       3 N3      10 H10      115.82
                      4 C4       3 N3      10 H10      116.53
                      3 N3       4 C4       5 C5       114.93
                      3 N3       4 C4       8 O8       120.48
                      5 C5       4 C4       8 O8       124.59
                      4 C4       5 C5       6 C6       117.59
                      4 C4       5 C5      11 C11      117.90
                      6 C6       5 C5      11 C11      124.51
                      1 N1       6 C6       5 C5       122.99
                      1 N1       6 C6      12 H12      114.77
                      5 C5       6 C6      12 H12      122.24
                      5 C5      11 C11     13 H13      110.83
                      5 C5      11 C11     14 H14      110.77
                      5 C5      11 C11     15 H15      110.77
                     13 H13     11 C11     14 H14      108.58
                     13 H13     11 C11     15 H15      108.58
                     14 H14     11 C11     15 H15      107.19

           ***************************************************************
           *              Valence Dihedral Angles / Degree               *
           ***************************************************************
                    Atom centers                       Phi1     Phi2     Theta 
           6 C6       1 N1       2 C2       7 O7        123.42   123.16   180.00
           2 C2       1 N1       6 C6       5 C5        123.42   122.99    -0.00
           2 C2       1 N1       6 C6      12 H12       123.42   114.77   180.00
           9 H9       1 N1       6 C6      12 H12       121.01   114.77     0.00
           3 N3       2 C2       1 N1       6 C6        113.42   123.42     0.00
           3 N3       2 C2       1 N1       9 H9        113.42   115.57  -180.00
           7 O7       2 C2       1 N1       9 H9        123.16   115.57    -0.00
           1 N1       2 C2       3 N3       4 C4        113.42   127.65    -0.00
           1 N1       2 C2       3 N3      10 H10       113.42   115.82   180.00
           7 O7       2 C2       3 N3      10 H10       123.42   115.82     0.00
           4 C4       3 N3       2 C2       7 O7        127.65   123.42  -180.00
           2 C2       3 N3       4 C4       5 C5        127.65   114.93    -0.00
           2 C2       3 N3       4 C4       8 O8        127.65   120.48  -180.00
           5 C5       4 C4       3 N3      10 H10       114.93   116.53   180.00
           8 O8       4 C4       3 N3      10 H10       120.48   116.53     0.00
           3 N3       4 C4       5 C5       6 C6        114.93   117.59     0.00
           3 N3       4 C4       5 C5      11 C11       114.93   117.90  -180.00
           8 O8       4 C4       5 C5      11 C11       124.59   117.90    -0.00
           6 C6       5 C5       4 C4       8 O8        117.59   124.59   180.00
           4 C4       5 C5       6 C6      12 H12       117.59   122.24   180.00
          11 C11      5 C5       6 C6      12 H12       124.51   122.24     0.00
           4 C4       5 C5      11 C11     13 H13       117.90   110.83  -180.00
           4 C4       5 C5      11 C11     14 H14       117.90   110.77   -59.41
           4 C4       5 C5      11 C11     15 H15       117.90   110.77    59.41
           6 C6       5 C5      11 C11     13 H13       124.51   110.83    -0.00
           6 C6       5 C5      11 C11     14 H14       124.51   110.77   120.59
           6 C6       5 C5      11 C11     15 H15       124.51   110.77  -120.59
           5 C5       6 C6       1 N1       9 H9        122.99   121.01  -180.00
           1 N1       6 C6       5 C5       4 C4        122.99   117.59    -0.00
           1 N1       6 C6       5 C5      11 C11       122.99   124.51  -180.00
--


++    Isotope specification:
      ----------------------

 Center
 Type   Z    A    mass (Da)
 --------------------------
    1   7   14    14.003074
    2   6   12    12.000000
    3   7   14    14.003074
    4   6   12    12.000000
    5   8   16    15.994915
    6   1    1     1.007825
    7   6   12    12.000000
    8   1    1     1.007825
--


++    Rigid rotor info:
      -----------------


                    Total mass (a) : 126.04293

                    Center of mass 
                          X          Y   
                       0.12123   -0.00370   -0.00000

                    Reference system based on center of mass
                    Coordinates and Masses of Atoms, in au and A
                          X          Y          Z        Mass
                       0.18115   -3.11985    0.00000   14.00307
                       2.42380   -1.83584   -0.00000   12.00000
                       2.13634    0.73736    0.00000   14.00307
                      -0.10320    2.09787    0.00000   12.00000
                      -2.41378    0.55139   -0.00000   12.00000
                      -2.14236   -1.94669    0.00000   12.00000
                       4.43458   -2.86245    0.00000   15.99491
                      -0.07170    4.35620   -0.00000   15.99491
                       0.31926   -4.99247    0.00000    1.00783
                       3.73098    1.74135    0.00000    1.00783
                      -4.91307    1.89739   -0.00000   12.00000
                      -3.73152   -3.20830    0.00000    1.00783
                      -6.46244    0.55700   -0.00000    1.00783
                      -5.09059    3.10024    1.64899    1.00783
                      -5.09059    3.10024   -1.64899    1.00783

                    The Moment of Inertia Tensor / au
                                     X          Y        Z     
                    X             0.1509E+07
                    Y             0.6309E+06 0.1809E+07
                    Z             0.3419E-01-0.1197E+00 0.3298E+07

                    The Principal Axes and Moments of Inertia (au)
                    Eigenvalues : 0.3298E+07 0.2307E+07 0.1010E+07
                                     X'         Y'       Z'    
                    Eigenvectors:
                    X            -0.1086E-07 0.6200E+00 0.7846E+00
                    Y            -0.8499E-07 0.7846E+00-0.6200E+00
                    Z             0.1000E+01 0.7341E-07-0.4417E-07

                    The Rotational Constants
                            (cm-1)            (GHz)
                              0.033            0.998
                              0.048            1.426
                              0.109            3.256


                    *******************************************
                    *                                         *
                    * R I G I D - R O T O R   A N A L Y S I S *
                    *                                         *
                    *******************************************

                    j(Max):  5

                    Rotor Type: Linear Rotor
                    Asymmetry parameter: -0.621
                    Prolate = -1
                    Oblate  =  1


                    Rotational energies / cm-1

                    E(J= 0,kappa= 0) =        0.000

                    E(J= 1,kappa=-1) =        0.081
                    E(J= 1,kappa= 0) =        0.142
                    E(J= 1,kappa= 1) =        0.156

                    E(J= 2,kappa=-2) =        0.240
                    E(J= 2,kappa=-1) =        0.289
                    E(J= 2,kappa= 0) =        0.332
                    E(J= 2,kappa= 1) =        0.515
                    E(J= 2,kappa= 2) =        0.517

                    E(J= 3,kappa=-3) =        0.474
                    E(J= 3,kappa=-2) =        0.509
                    E(J= 3,kappa=-1) =        0.595
                    E(J= 3,kappa= 0) =        0.758
                    E(J= 3,kappa= 1) =        0.769
                    E(J= 3,kappa= 2) =        1.100
                    E(J= 3,kappa= 3) =        1.100

                    E(J= 4,kappa=-4) =        0.778
                    E(J= 4,kappa=-3) =        0.800
                    E(J= 4,kappa=-2) =        0.941
                    E(J= 4,kappa=-1) =        1.079
                    E(J= 4,kappa= 0) =        1.110
                    E(J= 4,kappa= 1) =        1.427
                    E(J= 4,kappa= 2) =        1.429
                    E(J= 4,kappa= 3) =        1.901
                    E(J= 4,kappa= 4) =        1.901

                    E(J= 5,kappa=-5) =        1.148
                    E(J= 5,kappa=-4) =        1.161
                    E(J= 5,kappa=-3) =        1.369
                    E(J= 5,kappa=-2) =        1.479
                    E(J= 5,kappa=-1) =        1.543
                    E(J= 5,kappa= 0) =        1.837
                    E(J= 5,kappa= 1) =        1.843
                    E(J= 5,kappa= 2) =        2.310
                    E(J= 5,kappa= 3) =        2.310
                    E(J= 5,kappa= 4) =        2.919
                    E(J= 5,kappa= 5) =        2.919
--


++    Primitive basis info:
      ---------------------


                    *****************************************************
                    ******** Primitive Basis Functions (Valence) ********
                    *****************************************************


 Basis set:N.6-31G**.........                                                              

                  Type         
                   s
           No.      Exponent    Contraction Coefficients
            1  0.417351146D+04   0.001835   0.000000   0.000000
            2  0.627457911D+03   0.013995   0.000000   0.000000
            3  0.142902093D+03   0.068587   0.000000   0.000000
            4  0.402343293D+02   0.232241   0.000000   0.000000
            5  0.128202129D+02   0.469070   0.000000   0.000000
            6  0.116263619D+02   0.000000  -0.114961   0.000000
            7  0.439043701D+01   0.360455   0.000000   0.000000
            8  0.271627981D+01   0.000000  -0.169117   0.000000
            9  0.772218397D+00   0.000000   1.145852   0.000000
           10  0.212031497D+00   0.000000   0.000000   1.000000

                  Type         
                   p
           No.      Exponent    Contraction Coefficients
           11  0.116263619D+02   0.067580   0.000000
           12  0.271627981D+01   0.323907   0.000000
           13  0.772218397D+00   0.740895   0.000000
           14  0.212031497D+00   0.000000   1.000000

                  Type         
                   d
           No.      Exponent    Contraction Coefficients
           15  0.800000000D+00   1.000000


 Basis set:C.6-31G**.........                                                              

                  Type         
                   s
           No.      Exponent    Contraction Coefficients
           16  0.304752488D+04   0.001835   0.000000   0.000000
           17  0.457369518D+03   0.014037   0.000000   0.000000
           18  0.103948685D+03   0.068843   0.000000   0.000000
           19  0.292101553D+02   0.232184   0.000000   0.000000
           20  0.928666296D+01   0.467941   0.000000   0.000000
           21  0.786827235D+01   0.000000  -0.119332   0.000000
           22  0.316392696D+01   0.362312   0.000000   0.000000
           23  0.188128854D+01   0.000000  -0.160854   0.000000
           24  0.544249258D+00   0.000000   1.143456   0.000000
           25  0.168714478D+00   0.000000   0.000000   1.000000

                  Type         
                   p
           No.      Exponent    Contraction Coefficients
           26  0.786827235D+01   0.068999   0.000000
           27  0.188128854D+01   0.316424   0.000000
           28  0.544249258D+00   0.744308   0.000000
           29  0.168714478D+00   0.000000   1.000000

                  Type         
                   d
           No.      Exponent    Contraction Coefficients
           30  0.800000000D+00   1.000000


 Basis set:N.6-31G**.........                                                              

                  Type         
                   s
           No.      Exponent    Contraction Coefficients
           31  0.417351146D+04   0.001835   0.000000   0.000000
           32  0.627457911D+03   0.013995   0.000000   0.000000
           33  0.142902093D+03   0.068587   0.000000   0.000000
           34  0.402343293D+02   0.232241   0.000000   0.000000
           35  0.128202129D+02   0.469070   0.000000   0.000000
           36  0.116263619D+02   0.000000  -0.114961   0.000000
           37  0.439043701D+01   0.360455   0.000000   0.000000
           38  0.271627981D+01   0.000000  -0.169117   0.000000
           39  0.772218397D+00   0.000000   1.145852   0.000000
           40  0.212031497D+00   0.000000   0.000000   1.000000

                  Type         
                   p
           No.      Exponent    Contraction Coefficients
           41  0.116263619D+02   0.067580   0.000000
           42  0.271627981D+01   0.323907   0.000000
           43  0.772218397D+00   0.740895   0.000000
           44  0.212031497D+00   0.000000   1.000000

                  Type         
                   d
           No.      Exponent    Contraction Coefficients
           45  0.800000000D+00   1.000000


 Basis set:C.6-31G**.........                                                              

                  Type         
                   s
           No.      Exponent    Contraction Coefficients
           46  0.304752488D+04   0.001835   0.000000   0.000000
           47  0.457369518D+03   0.014037   0.000000   0.000000
           48  0.103948685D+03   0.068843   0.000000   0.000000
           49  0.292101553D+02   0.232184   0.000000   0.000000
           50  0.928666296D+01   0.467941   0.000000   0.000000
           51  0.786827235D+01   0.000000  -0.119332   0.000000
           52  0.316392696D+01   0.362312   0.000000   0.000000
           53  0.188128854D+01   0.000000  -0.160854   0.000000
           54  0.544249258D+00   0.000000   1.143456   0.000000
           55  0.168714478D+00   0.000000   0.000000   1.000000

                  Type         
                   p
           No.      Exponent    Contraction Coefficients
           56  0.786827235D+01   0.068999   0.000000
           57  0.188128854D+01   0.316424   0.000000
           58  0.544249258D+00   0.744308   0.000000
           59  0.168714478D+00   0.000000   1.000000

                  Type         
                   d
           No.      Exponent    Contraction Coefficients
           60  0.800000000D+00   1.000000


 Basis set:O.6-31G**.........                                                              

                  Type         
                   s
           No.      Exponent    Contraction Coefficients
           91  0.548467166D+04   0.001831   0.000000   0.000000
           92  0.825234946D+03   0.013950   0.000000   0.000000
           93  0.188046958D+03   0.068445   0.000000   0.000000
           94  0.529645000D+02   0.232714   0.000000   0.000000
           95  0.168975704D+02   0.470193   0.000000   0.000000
           96  0.155396162D+02   0.000000  -0.110778   0.000000
           97  0.579963534D+01   0.358521   0.000000   0.000000
           98  0.359993359D+01   0.000000  -0.148026   0.000000
           99  0.101376175D+01   0.000000   1.130767   0.000000
          100  0.270005823D+00   0.000000   0.000000   1.000000

                  Type         
                   p
           No.      Exponent    Contraction Coefficients
          101  0.155396162D+02   0.070874   0.000000
          102  0.359993359D+01   0.339753   0.000000
          103  0.101376175D+01   0.727159   0.000000
          104  0.270005823D+00   0.000000   1.000000

                  Type         
                   d
           No.      Exponent    Contraction Coefficients
          105  0.800000000D+00   1.000000


 Basis set:H.6-31G**.........                                                              

                  Type         
                   s
           No.      Exponent    Contraction Coefficients
          121  0.187311370D+02   0.033495   0.000000
          122  0.282539437D+01   0.234727   0.000000
          123  0.640121692D+00   0.813757   0.000000
          124  0.161277759D+00   0.000000   1.000000

                  Type         
                   p
           No.      Exponent    Contraction Coefficients
          125  0.110000000D+01   1.000000


 Basis set:C.6-31G**.........                                                              

                  Type         
                   s
           No.      Exponent    Contraction Coefficients
          131  0.304752488D+04   0.001835   0.000000   0.000000
          132  0.457369518D+03   0.014037   0.000000   0.000000
          133  0.103948685D+03   0.068843   0.000000   0.000000
          134  0.292101553D+02   0.232184   0.000000   0.000000
          135  0.928666296D+01   0.467941   0.000000   0.000000
          136  0.786827235D+01   0.000000  -0.119332   0.000000
          137  0.316392696D+01   0.362312   0.000000   0.000000
          138  0.188128854D+01   0.000000  -0.160854   0.000000
          139  0.544249258D+00   0.000000   1.143456   0.000000
          140  0.168714478D+00   0.000000   0.000000   1.000000

                  Type         
                   p
           No.      Exponent    Contraction Coefficients
          141  0.786827235D+01   0.068999   0.000000
          142  0.188128854D+01   0.316424   0.000000
          143  0.544249258D+00   0.744308   0.000000
          144  0.168714478D+00   0.000000   1.000000

                  Type         
                   d
           No.      Exponent    Contraction Coefficients
          145  0.800000000D+00   1.000000


 Basis set:H.6-31G**.........                                                              

                  Type         
                   s
           No.      Exponent    Contraction Coefficients
          146  0.187311370D+02   0.033495   0.000000
          147  0.282539437D+01   0.234727   0.000000
          148  0.640121692D+00   0.813757   0.000000
          149  0.161277759D+00   0.000000   1.000000

                  Type         
                   p
           No.      Exponent    Contraction Coefficients
          150  0.110000000D+01   1.000000

  Number of primitives                                  294
  Number of basis functions                             165

--


++    SO/AO info:
      -----------

                    **************************************************
                    ********** Petite list Basis Functions ***********
                    **************************************************


           Basis functions generated by E  

 Basis Label        Type   Center
    1  N1            1s       1
    2  N1            2s       1
    3  N1            *s       1
    4  N1            2px      1
    5  N1            *px      1
    6  N1            2py      1
    7  N1            *py      1
    8  N1            2pz      1
    9  N1            *pz      1
   10  N1            *200     1
   11  N1            *110     1
   12  N1            *101     1
   13  N1            *020     1
   14  N1            *011     1
   15  N1            *002     1
   16  C2            1s       2
   17  C2            2s       2
   18  C2            *s       2
   19  C2            2px      2
   20  C2            *px      2
   21  C2            2py      2
   22  C2            *py      2
   23  C2            2pz      2
   24  C2            *pz      2
   25  C2            *200     2
   26  C2            *110     2
   27  C2            *101     2
   28  C2            *020     2
   29  C2            *011     2
   30  C2            *002     2
   31  N3            1s       3
   32  N3            2s       3
   33  N3            *s       3
   34  N3            2px      3
   35  N3            *px      3
   36  N3            2py      3
   37  N3            *py      3
   38  N3            2pz      3
   39  N3            *pz      3
   40  N3            *200     3
   41  N3            *110     3
   42  N3            *101     3
   43  N3            *020     3
   44  N3            *011     3
   45  N3            *002     3
   46  C4            1s       4
   47  C4            2s       4
   48  C4            *s       4
   49  C4            2px      4
   50  C4            *px      4
   51  C4            2py      4
   52  C4            *py      4
   53  C4            2pz      4
   54  C4            *pz      4
   55  C4            *200     4
   56  C4            *110     4
   57  C4            *101     4
   58  C4            *020     4
   59  C4            *011     4
   60  C4            *002     4
   61  C5            1s       5
   62  C5            2s       5
   63  C5            *s       5
   64  C5            2px      5
   65  C5            *px      5
   66  C5            2py      5
   67  C5            *py      5
   68  C5            2pz      5
   69  C5            *pz      5
   70  C5            *200     5
   71  C5            *110     5
   72  C5            *101     5
   73  C5            *020     5
   74  C5            *011     5
   75  C5            *002     5
   76  C6            1s       6
   77  C6            2s       6
   78  C6            *s       6
   79  C6            2px      6
   80  C6            *px      6
   81  C6            2py      6
   82  C6            *py      6
   83  C6            2pz      6
   84  C6            *pz      6
   85  C6            *200     6
   86  C6            *110     6
   87  C6            *101     6
   88  C6            *020     6
   89  C6            *011     6
   90  C6            *002     6
   91  O7            1s       7
   92  O7            2s       7
   93  O7            *s       7
   94  O7            2px      7
   95  O7            *px      7
   96  O7            2py      7
   97  O7            *py      7
   98  O7            2pz      7
   99  O7            *pz      7
  100  O7            *200     7
  101  O7            *110     7
  102  O7            *101     7
  103  O7            *020     7
  104  O7            *011     7
  105  O7            *002     7
  106  O8            1s       8
  107  O8            2s       8
  108  O8            *s       8
  109  O8            2px      8
  110  O8            *px      8
  111  O8            2py      8
  112  O8            *py      8
  113  O8            2pz      8
  114  O8            *pz      8
  115  O8            *200     8
  116  O8            *110     8
  117  O8            *101     8
  118  O8            *020     8
  119  O8            *011     8
  120  O8            *002     8
  121  H9            1s       9
  122  H9            *s       9
  123  H9            *px      9
  124  H9            *py      9
  125  H9            *pz      9
  126  H10           1s      10
  127  H10           *s      10
  128  H10           *px     10
  129  H10           *py     10
  130  H10           *pz     10
  131  C11           1s      11
  132  C11           2s      11
  133  C11           *s      11
  134  C11           2px     11
  135  C11           *px     11
  136  C11           2py     11
  137  C11           *py     11
  138  C11           2pz     11
  139  C11           *pz     11
  140  C11           *200    11
  141  C11           *110    11
  142  C11           *101    11
  143  C11           *020    11
  144  C11           *011    11
  145  C11           *002    11
  146  H12           1s      12
  147  H12           *s      12
  148  H12           *px     12
  149  H12           *py     12
  150  H12           *pz     12
  151  H13           1s      13
  152  H13           *s      13
  153  H13           *px     13
  154  H13           *py     13
  155  H13           *pz     13
  156  H14           1s      14
  157  H14           *s      14
  158  H14           *px     14
  159  H14           *py     14
  160  H14           *pz     14
  161  H15           1s      15
  162  H15           *s      15
  163  H15           *px     15
  164  H15           *py     15
  165  H15           *pz     15

      Basis set specifications :
      Symmetry species        a  
      Basis functions         165
--


            Nuclear Potential Energy            443.14562919 au

--- Stop Module: gateway at Tue Apr 18 16:59:49 2023 /rc=_RC_ALL_IS_WELL_ ---
*** files: caspt2_ES2.RICDLib xmldump
    saved to directory /home/marlenne/thymine/Thymine/MOLCAS/4.Excited_State/2.ES_planar

--- Start Module: seward at Tue Apr 18 16:59:49 2023 ---

()()()()()()()()()()()()()()()()()()()()()()()()()()()()()()()()()()()()()()()()()()()()()()()()()()

                                              &SEWARD

                                   only a single process is used
                       available to each process: 4.0 GB of memory, 1 thread?
                                             pid: 14696
()()()()()()()()()()()()()()()()()()()()()()()()()()()()()()()()()()()()()()()()()()()()()()()()()()


  Weights used for alignment and distance                     
  mat. size =    15x    1
       14.0030740044299993
       12.0000000000000000
       14.0030740044299993
       12.0000000000000000
       12.0000000000000000
       12.0000000000000000
       15.9949146195700003
       15.9949146195700003
        1.0078250322300000
        1.0078250322300000
       12.0000000000000000
        1.0078250322300000
        1.0078250322300000
        1.0078250322300000
        1.0078250322300000

               SEWARD will generate:
                  Multipole Moment integrals up to order  2
                  Kinetic Energy integrals
                  Nuclear Attraction integrals (point charge)
                  One-Electron Hamiltonian integrals
                  Velocity integrals
                  Orbital angular momentum around ( 0.1212 -0.0037 -0.0000 )
                  Velocity quadrupole around ( 0.1212 -0.0037 -0.0000 )
                  RI decomposed two-electron repulsion integrals stored Cholesky style
                   - acCD auxiliary basis
                   - CD Threshold:   0.10E-07

                   Integrals are discarded if absolute value <: 0.10E-13
                   Integral cutoff threshold is set to       <: 0.10E-15

++    SO/AO info:
      -----------

                    **************************************************
                    ********** Petite list Basis Functions ***********
                    **************************************************


           Basis functions generated by E  

 Basis Label        Type   Center
    1  N1            1s       1
    2  N1            2s       1
    3  N1            *s       1
    4  N1            2px      1
    5  N1            *px      1
    6  N1            2py      1
    7  N1            *py      1
    8  N1            2pz      1
    9  N1            *pz      1
   10  N1            *200     1
   11  N1            *110     1
   12  N1            *101     1
   13  N1            *020     1
   14  N1            *011     1
   15  N1            *002     1
   16  C2            1s       2
   17  C2            2s       2
   18  C2            *s       2
   19  C2            2px      2
   20  C2            *px      2
   21  C2            2py      2
   22  C2            *py      2
   23  C2            2pz      2
   24  C2            *pz      2
   25  C2            *200     2
   26  C2            *110     2
   27  C2            *101     2
   28  C2            *020     2
   29  C2            *011     2
   30  C2            *002     2
   31  N3            1s       3
   32  N3            2s       3
   33  N3            *s       3
   34  N3            2px      3
   35  N3            *px      3
   36  N3            2py      3
   37  N3            *py      3
   38  N3            2pz      3
   39  N3            *pz      3
   40  N3            *200     3
   41  N3            *110     3
   42  N3            *101     3
   43  N3            *020     3
   44  N3            *011     3
   45  N3            *002     3
   46  C4            1s       4
   47  C4            2s       4
   48  C4            *s       4
   49  C4            2px      4
   50  C4            *px      4
   51  C4            2py      4
   52  C4            *py      4
   53  C4            2pz      4
   54  C4            *pz      4
   55  C4            *200     4
   56  C4            *110     4
   57  C4            *101     4
   58  C4            *020     4
   59  C4            *011     4
   60  C4            *002     4
   61  C5            1s       5
   62  C5            2s       5
   63  C5            *s       5
   64  C5            2px      5
   65  C5            *px      5
   66  C5            2py      5
   67  C5            *py      5
   68  C5            2pz      5
   69  C5            *pz      5
   70  C5            *200     5
   71  C5            *110     5
   72  C5            *101     5
   73  C5            *020     5
   74  C5            *011     5
   75  C5            *002     5
   76  C6            1s       6
   77  C6            2s       6
   78  C6            *s       6
   79  C6            2px      6
   80  C6            *px      6
   81  C6            2py      6
   82  C6            *py      6
   83  C6            2pz      6
   84  C6            *pz      6
   85  C6            *200     6
   86  C6            *110     6
   87  C6            *101     6
   88  C6            *020     6
   89  C6            *011     6
   90  C6            *002     6
   91  O7            1s       7
   92  O7            2s       7
   93  O7            *s       7
   94  O7            2px      7
   95  O7            *px      7
   96  O7            2py      7
   97  O7            *py      7
   98  O7            2pz      7
   99  O7            *pz      7
  100  O7            *200     7
  101  O7            *110     7
  102  O7            *101     7
  103  O7            *020     7
  104  O7            *011     7
  105  O7            *002     7
  106  O8            1s       8
  107  O8            2s       8
  108  O8            *s       8
  109  O8            2px      8
  110  O8            *px      8
  111  O8            2py      8
  112  O8            *py      8
  113  O8            2pz      8
  114  O8            *pz      8
  115  O8            *200     8
  116  O8            *110     8
  117  O8            *101     8
  118  O8            *020     8
  119  O8            *011     8
  120  O8            *002     8
  121  H9            1s       9
  122  H9            *s       9
  123  H9            *px      9
  124  H9            *py      9
  125  H9            *pz      9
  126  H10           1s      10
  127  H10           *s      10
  128  H10           *px     10
  129  H10           *py     10
  130  H10           *pz     10
  131  C11           1s      11
  132  C11           2s      11
  133  C11           *s      11
  134  C11           2px     11
  135  C11           *px     11
  136  C11           2py     11
  137  C11           *py     11
  138  C11           2pz     11
  139  C11           *pz     11
  140  C11           *200    11
  141  C11           *110    11
  142  C11           *101    11
  143  C11           *020    11
  144  C11           *011    11
  145  C11           *002    11
  146  H12           1s      12
  147  H12           *s      12
  148  H12           *px     12
  149  H12           *py     12
  150  H12           *pz     12
  151  H13           1s      13
  152  H13           *s      13
  153  H13           *px     13
  154  H13           *py     13
  155  H13           *pz     13
  156  H14           1s      14
  157  H14           *s      14
  158  H14           *px     14
  159  H14           *py     14
  160  H14           *pz     14
  161  H15           1s      15
  162  H15           *s      15
  163  H15           *px     15
  164  H15           *py     15
  165  H15           *pz     15

      Basis set specifications :
      Symmetry species        a  
      Basis functions         165
--


            Nuclear Potential Energy            443.14562919 au


      Basis set specifications :
      Symmetry species         a  
      Basis functions          165


Seward processing 2-center and 3-center ERIs

 ###############################################################################
 ###############################################################################
 ###                                                                         ###
 ###                                                                         ###
 ###    Location: AixRm                                                      ###
 ###                                                                         ###
 ###                                                                         ###
 ###    Premature abort while removing the fileNo such file                  ###
 ###    or directory                                                         ###
 ###                                                                         ###
 ###                                                                         ###
 ###############################################################################
 ###############################################################################
--- Stop Module: seward at Tue Apr 18 16:59:50 2023 /rc=_RC_INTERNAL_ERROR_ ---
*** files: xmldump
    saved to directory /home/marlenne/thymine/Thymine/MOLCAS/4.Excited_State/2.ES_planar
 Some internal inconsistency of the code was detected
    Timing: Wall=1.41 User=1.18 System=0.06
[...]
                                                                                                                                                                                                                                                                                                                                                                                                                                                                                                                                                                                                                                                                                                                                                                                                                                                                                                                                                                                                                                                                                                                                                                                                                                                                                                                                                                                                                                                                                                                                                                                                                                                                                                                                                                                                                                                                                                                                                                                                                                                                                                                                                                                                                                                                                                                                                                                                                                                                                                                                                                                                                                                                                                                                                                                                                                                                                                                                                                                                                                                                                                                                                                                                                                                                                                                                                                                                                                                                                                                                                                                                                                                                                                                                                                                                                                                                                                                                                                                                                                                                                                                                                                                                                                                                                                                                                                                                                                                                                                                                                                                                                                                                                                                                                                                                                                                                                                                                                                                                                                                                                                                                                                                                                                                                                                                                                                                                                                                                                                                                                                                                                                                                                                                                                                                                                                                                                                                                                                                                                                                                                                                                                                                                                                                                                                                                                                                                                                                                                                                                                                                                                                                                                                                                                                                                                                                                                                                                                                                                                                                                                                                                                                                                                                                                                                                                                                                                                                                                                                                                                                                                                                                                                                                                                                                                                                                                                                                                                                                                                                                                                                                                                                                                                                                                                                                                                                                                                                                                                                                                                                                                                                                                                                                                                                                                                                                                                                                                                                                                                                                                                                                                                                                                                                                                                                                                                                                                                                                                                                                                                                                                                                                                                                                                                                                                                                                                                                                                                                                                                                                                                                                                                                                                                                                                                                                                                                                                                                                                                                                                                                                                                                                                                                                                                                                                                                                                                                                                                                                                                                                                                                                                                                                                                                                                                                                                                                                                                                                                                                                                                                                                                                                                                                                                                                                                                                                                                                                                                                                                                                                                                                                                                                                                                                                                                                                                                                                                                                                                                                                                                                                                                                                                                                                                                                                                                                                                                                                                                                                                                                                                                                                                                                                                                                                                                                                                                                                                                                                                                                                                                                                                                                                     *** files: caspt2_ES2.rasscf.molden caspt2_ES2.rasscf.molden.1 caspt2_ES2.rasscf.molden.2 caspt2_ES2.rasscf.molden.3 caspt2_ES2.rasscf.molden.4 caspt2_ES2.rasscf.molden.5
           caspt2_ES2.rasscf.molden.6 caspt2_ES2.RasOrb caspt2_ES2.RasOrb.1 caspt2_ES2.RasOrb.2 caspt2_ES2.RasOrb.3 caspt2_ES2.RasOrb.4 caspt2_ES2.RasOrb.5 caspt2_ES2.RasOrb.6
           caspt2_ES2.SpdOrb.1 caspt2_ES2.SpdOrb.2 caspt2_ES2.SpdOrb.3 caspt2_ES2.SpdOrb.4 caspt2_ES2.SpdOrb.5 caspt2_ES2.SpdOrb.6 xmldump
    saved to directory /home/marlenne/thymine/Thymine/MOLCAS/4.Excited_State/1.ES_non-planar
--- Module rasscf spent 2 minutes 10 seconds ---

*** symbolic link created: INPORB -> caspt2_ES2.RasOrb
--- Start Module: caspt2 at Tue Apr 18 16:59:50 2023 ---

()()()()()()()()()()()()()()()()()()()()()()()()()()()()()()()()()()()()()()()()()()()()()()()()()()

                                              &CASPT2

                                   only a single process is used
                       available to each process: 4.0 GB of memory, 1 thread?
                                             pid: 14699
()()()()()()()()()()()()()()()()()()()()()()()()()()()()()()()()()()()()()()()()()()()()()()()()()()

 ###############################################################################
 ###############################################################################
 ###                                                                         ###
 ###                                                                         ###
 ###    WARNING: User modified linear dependency thresholds!                 ###
 ###                                                                         ###
 ###                                                                         ###
 ###############################################################################
 ###############################################################################

      Header of the ONEINT file:
      --------------------------
      
      Integrals generated by Gateway/Seward, Tue Apr 18 16:57:35 2023


      Cartesian coordinates in Angstrom:
      -----------------------------------------------------
      No.  Label        X            Y            Z        
      -----------------------------------------------------
       1   N1         0.16001650  -1.65290839   0.00000021
       2   C2         1.34677381  -0.97344133  -0.00000266
       3   N3         1.19465720   0.38823779   0.00000001
       4   C4         0.00954344   1.10818741   0.00000199
       5   C5        -1.21316478   0.28982683  -0.00000051
       6   C6        -1.06953588  -1.03210140   0.00000007
       7   O7         2.41083448  -1.51670136   0.00000062
       8   O8         0.02621457   2.30324465  -0.00000033
       9   H9         0.23310151  -2.64386040   0.00000033
      10   H10        2.03850100   0.91952659   0.00000030
      11   C11       -2.53573289   1.00209932  -0.00000017
      12   H12       -1.91048089  -1.69971376   0.00000072
      13   H13       -3.35562208   0.29279706  -0.00000027
      14   H14       -2.62967001   1.63861747   0.87260658
      15   H15       -2.62966998   1.63861753  -0.87260687
      -----------------------------------------------------
      Nuclear repulsion energy =  443.14562919

++    Wave function specifications:
      -----------------------------

      Number of closed shell electrons          34
      Number of electrons in active shells      14
      Max number of holes in RAS1 space          0
      Max number of electrons in RAS3 space      0
      Number of inactive orbitals               17
      Number of active orbitals                 10
      Number of secondary orbitals             129
      Spin quantum number                      0.0
      State symmetry                             1
      Number of CSFs                          4950
      Number of CASSCF root(s) available         6
      CASPT2 state passed to geometry opt.       3
      A file JOBMIX will be created
      This is a MULTI-STATE CASSCF reference
      Number of CI roots used                    6
      These are:                                 1   2   3   4   5   6
      Off-diagonal elements of Heff are computed
--

++    Orbital specifications:
      -----------------------

      Symmetry species                           1
                                                 a
      Frozen orbitals                            9
      Inactive orbitals                         17
      Active orbitals                           10
      Secondary orbitals                       129
      Deleted orbitals                           0
      Number of basis functions                165
--

++    CASPT2 specifications:
      ----------------------

      Type of calculation                        XMS-CASPT2
      Fock operator                              state-average
      IPEA shift                                 0.00
      Real shift                                 0.00
      Imaginary shift                            0.20
      The input orbitals will be transformed to quasi-canonical
      The input states will be rotated to diagonalize the Fock operator
--


  The wave functions (P_CAS) H W |Psi_0> and (P_CAS) W H |Psi_0>
  will be computed and written out for subsequent
  use in a gradient calculation.
--------------------------------------------------------------------------------
 Estimated memory requirements:
  POLY3 :                  1094700
  RHS:                     3198244
  SIGMA :                  5951800
  PRPCTL:                        0
 Available workspace:    449923411

 ###############################################################################
 ###############################################################################
 ###                                                                         ###
 ###                                                                         ###
 ###    Location: get_iScalar                                                ###
 ###                                                                         ###
 ###                                                                         ###
 ###    Data not defined: ChoVec Address                                     ###
 ###                                                                         ###
 ###                                                                         ###
 ###############################################################################
 ###############################################################################
--- Stop Module: caspt2 at Tue Apr 18 16:59:50 2023 /rc=_RC_INTERNAL_ERROR_ ---
*** files: xmldump
    saved to directory /home/marlenne/thymine/Thymine/MOLCAS/4.Excited_State/1.ES_non-planar
 Some internal inconsistency of the code was detected
    Timing: Wall=134.76 User=131.93 System=1.67
