[Molden Format]
[N_Atoms]
                   15
[Atoms] (AU)
N1          1      7          -2.25073627     -1.78532214     -0.19001512
C2          2      6          -2.30735248      0.77542884      0.15241973
N3          3      7           0.04247330      1.86327992      0.17340123
C4          4      6           2.35985686      0.67301693     -0.10770248
C5          5      6           2.22680122     -2.08084290     -0.46668797
C6          6      6          -0.05008421     -3.14352927     -0.48732350
O7          7      8          -4.22116734      1.94532892      0.40812880
O8          8      8           4.27588430      1.86737715     -0.05048740
H9          9      1          -0.31083143     -5.13998225     -0.73916936
H10        10      1           0.07959785      3.73120340      0.41925840
H11        11      1          -3.92412509     -2.63678785     -0.21608449
C12        12      6           4.66563032     -3.49802885     -0.78510201
H13        13      1           5.69867033     -2.80979233     -2.41505370
H14        14      1           5.87365959     -3.24184559      0.84969523
H15        15      1           4.31717752     -5.50177647     -1.03165163
[Charge] (Mulliken)
 -0.75539219104832434     
  0.88838338221966495     
 -0.80570929745394793     
  0.67106846152206234     
 -0.24586778663024589     
  0.16772996910970850     
 -0.60775269104541607     
 -0.20544859539227645     
  0.16499391625023629     
  0.33764904624470149     
  0.33475359839610863     
 -0.31829837316484966     
  0.13078937178109351     
  0.13082425212203797     
  0.11227693708648823     
[GTO] (AU)
   1
   s   6
  0.417351146E+04  0.183477216E-02
  0.627457911E+03  0.139946270E-01
  0.142902093E+03  0.685865518E-01
  0.402343293E+02  0.232240873E+00
  0.128202129E+02  0.469069948E+00
  0.439043701E+01  0.360455199E+00
   s   3
  0.116263619E+02 -0.114961182E+00
  0.271627981E+01 -0.169117479E+00
  0.772218397E+00  0.114585195E+01
   s   1
  0.212031497E+00  0.100000000E+01
   p   3
  0.116263619E+02  0.675797439E-01
  0.271627981E+01  0.323907296E+00
  0.772218397E+00  0.740895140E+00
   p   1
  0.212031497E+00  0.100000000E+01
   d   1
  0.800000000E+00  0.100000000E+01
 
   2
   s   6
  0.304752488E+04  0.183473713E-02
  0.457369518E+03  0.140373228E-01
  0.103948685E+03  0.688426223E-01
  0.292101553E+02  0.232184443E+00
  0.928666296E+01  0.467941348E+00
  0.316392696E+01  0.362311985E+00
   s   3
  0.786827235E+01 -0.119332420E+00
  0.188128854E+01 -0.160854152E+00
  0.544249258E+00  0.114345644E+01
   s   1
  0.168714478E+00  0.100000000E+01
   p   3
  0.786827235E+01  0.689990666E-01
  0.188128854E+01  0.316423961E+00
  0.544249258E+00  0.744308291E+00
   p   1
  0.168714478E+00  0.100000000E+01
   d   1
  0.800000000E+00  0.100000000E+01
 
   3
   s   6
  0.417351146E+04  0.183477216E-02
  0.627457911E+03  0.139946270E-01
  0.142902093E+03  0.685865518E-01
  0.402343293E+02  0.232240873E+00
  0.128202129E+02  0.469069948E+00
  0.439043701E+01  0.360455199E+00
   s   3
  0.116263619E+02 -0.114961182E+00
  0.271627981E+01 -0.169117479E+00
  0.772218397E+00  0.114585195E+01
   s   1
  0.212031497E+00  0.100000000E+01
   p   3
  0.116263619E+02  0.675797439E-01
  0.271627981E+01  0.323907296E+00
  0.772218397E+00  0.740895140E+00
   p   1
  0.212031497E+00  0.100000000E+01
   d   1
  0.800000000E+00  0.100000000E+01
 
   4
   s   6
  0.304752488E+04  0.183473713E-02
  0.457369518E+03  0.140373228E-01
  0.103948685E+03  0.688426223E-01
  0.292101553E+02  0.232184443E+00
  0.928666296E+01  0.467941348E+00
  0.316392696E+01  0.362311985E+00
   s   3
  0.786827235E+01 -0.119332420E+00
  0.188128854E+01 -0.160854152E+00
  0.544249258E+00  0.114345644E+01
   s   1
  0.168714478E+00  0.100000000E+01
   p   3
  0.786827235E+01  0.689990666E-01
  0.188128854E+01  0.316423961E+00
  0.544249258E+00  0.744308291E+00
   p   1
  0.168714478E+00  0.100000000E+01
   d   1
  0.800000000E+00  0.100000000E+01
 
   5
   s   6
  0.304752488E+04  0.183473713E-02
  0.457369518E+03  0.140373228E-01
  0.103948685E+03  0.688426223E-01
  0.292101553E+02  0.232184443E+00
  0.928666296E+01  0.467941348E+00
  0.316392696E+01  0.362311985E+00
   s   3
  0.786827235E+01 -0.119332420E+00
  0.188128854E+01 -0.160854152E+00
  0.544249258E+00  0.114345644E+01
   s   1
  0.168714478E+00  0.100000000E+01
   p   3
  0.786827235E+01  0.689990666E-01
  0.188128854E+01  0.316423961E+00
  0.544249258E+00  0.744308291E+00
   p   1
  0.168714478E+00  0.100000000E+01
   d   1
  0.800000000E+00  0.100000000E+01
 
   6
   s   6
  0.304752488E+04  0.183473713E-02
  0.457369518E+03  0.140373228E-01
  0.103948685E+03  0.688426223E-01
  0.292101553E+02  0.232184443E+00
  0.928666296E+01  0.467941348E+00
  0.316392696E+01  0.362311985E+00
   s   3
  0.786827235E+01 -0.119332420E+00
  0.188128854E+01 -0.160854152E+00
  0.544249258E+00  0.114345644E+01
   s   1
  0.168714478E+00  0.100000000E+01
   p   3
  0.786827235E+01  0.689990666E-01
  0.188128854E+01  0.316423961E+00
  0.544249258E+00  0.744308291E+00
   p   1
  0.168714478E+00  0.100000000E+01
   d   1
  0.800000000E+00  0.100000000E+01
 
   7
   s   6
  0.548467166E+04  0.183107443E-02
  0.825234946E+03  0.139501722E-01
  0.188046958E+03  0.684450781E-01
  0.529645000E+02  0.232714336E+00
  0.168975704E+02  0.470192898E+00
  0.579963534E+01  0.358520853E+00
   s   3
  0.155396162E+02 -0.110777550E+00
  0.359993359E+01 -0.148026263E+00
  0.101376175E+01  0.113076702E+01
   s   1
  0.270005823E+00  0.100000000E+01
   p   3
  0.155396162E+02  0.708742682E-01
  0.359993359E+01  0.339752839E+00
  0.101376175E+01  0.727158577E+00
   p   1
  0.270005823E+00  0.100000000E+01
   d   1
  0.800000000E+00  0.100000000E+01
 
   8
   s   6
  0.548467166E+04  0.183107443E-02
  0.825234946E+03  0.139501722E-01
  0.188046958E+03  0.684450781E-01
  0.529645000E+02  0.232714336E+00
  0.168975704E+02  0.470192898E+00
  0.579963534E+01  0.358520853E+00
   s   3
  0.155396162E+02 -0.110777550E+00
  0.359993359E+01 -0.148026263E+00
  0.101376175E+01  0.113076702E+01
   s   1
  0.270005823E+00  0.100000000E+01
   p   3
  0.155396162E+02  0.708742682E-01
  0.359993359E+01  0.339752839E+00
  0.101376175E+01  0.727158577E+00
   p   1
  0.270005823E+00  0.100000000E+01
   d   1
  0.800000000E+00  0.100000000E+01
 
   9
   s   3
  0.187311370E+02  0.334946043E-01
  0.282539437E+01  0.234726954E+00
  0.640121692E+00  0.813757326E+00
   s   1
  0.161277759E+00  0.100000000E+01
   p   1
  0.110000000E+01  0.100000000E+01
 
  10
   s   3
  0.187311370E+02  0.334946043E-01
  0.282539437E+01  0.234726954E+00
  0.640121692E+00  0.813757326E+00
   s   1
  0.161277759E+00  0.100000000E+01
   p   1
  0.110000000E+01  0.100000000E+01
 
  11
   s   3
  0.187311370E+02  0.334946043E-01
  0.282539437E+01  0.234726954E+00
  0.640121692E+00  0.813757326E+00
   s   1
  0.161277759E+00  0.100000000E+01
   p   1
  0.110000000E+01  0.100000000E+01
 
  12
   s   6
  0.304752488E+04  0.183473713E-02
  0.457369518E+03  0.140373228E-01
  0.103948685E+03  0.688426223E-01
  0.292101553E+02  0.232184443E+00
  0.928666296E+01  0.467941348E+00
  0.316392696E+01  0.362311985E+00
   s   3
  0.786827235E+01 -0.119332420E+00
  0.188128854E+01 -0.160854152E+00
  0.544249258E+00  0.114345644E+01
   s   1
  0.168714478E+00  0.100000000E+01
   p   3
  0.786827235E+01  0.689990666E-01
  0.188128854E+01  0.316423961E+00
  0.544249258E+00  0.744308291E+00
   p   1
  0.168714478E+00  0.100000000E+01
   d   1
  0.800000000E+00  0.100000000E+01
 
  13
   s   3
  0.187311370E+02  0.334946043E-01
  0.282539437E+01  0.234726954E+00
  0.640121692E+00  0.813757326E+00
   s   1
  0.161277759E+00  0.100000000E+01
   p   1
  0.110000000E+01  0.100000000E+01
 
  14
   s   3
  0.187311370E+02  0.334946043E-01
  0.282539437E+01  0.234726954E+00
  0.640121692E+00  0.813757326E+00
   s   1
  0.161277759E+00  0.100000000E+01
   p   1
  0.110000000E+01  0.100000000E+01
 
  15
   s   3
  0.187311370E+02  0.334946043E-01
  0.282539437E+01  0.234726954E+00
  0.640121692E+00  0.813757326E+00
   s   1
  0.161277759E+00  0.100000000E+01
   p   1
  0.110000000E+01  0.100000000E+01
 
[MO]
Sym=     1a  
Ene=   -20.6000
Spin= Alpha
Occup=    1.00000
   1        -0.00000124
   2        -0.00000319
   3         0.00019212
   4         0.00000450
   5         0.00000531
   6         0.00000050
   7        -0.00000162
   8         0.00007095
   9         0.00000947
  10        -0.00000247
  11        -0.00001148
  12         0.00000547
  13         0.00001814
  14         0.00000293
  15        -0.00000364
  16         0.00001279
  17         0.00005375
  18         0.00002833
  19         0.00003241
  20         0.00001606
  21         0.00000045
  22        -0.00020692
  23         0.00031335
  24         0.00005253
  25         0.00002808
  26         0.00002874
  27         0.00002238
  28         0.00003330
  29         0.00000411
  30        -0.00000082
  31        -0.00001116
  32        -0.00004576
  33         0.00020370
  34        -0.00004945
  35         0.00001766
  36         0.00000498
  37         0.00027952
  38        -0.00000953
  39        -0.00001605
  40        -0.00010192
  41         0.00006995
  42        -0.00005508
  43        -0.00006081
  44        -0.00000542
  45         0.00002285
  46        -0.00001526
  47         0.00039842
  48        -0.00081739
  49        -0.00015020
  50        -0.00008674
  51        -0.00000356
  52        -0.00070077
  53        -0.00070189
  54        -0.00005616
  55        -0.00069211
  56        -0.00027589
  57        -0.00004944
  58        -0.00046445
  59        -0.00002240
  60        -0.00001016
  61        -0.00000220
  62        -0.00000938
  63        -0.00019756
  64        -0.00002215
  65        -0.00001501
  66        -0.00000082
  67         0.00024631
  68        -0.00008678
  69        -0.00002467
  70        -0.00000989
  71         0.00000169
  72        -0.00001920
  73        -0.00008980
  74        -0.00001261
  75         0.00000821
  76         0.00000225
  77         0.00002787
  78         0.00010593
  79         0.00002289
  80         0.00000902
  81         0.00000000
  82         0.00002110
  83        -0.00000539
  84        -0.00000181
  85         0.00003477
  86        -0.00003567
  87         0.00000352
  88        -0.00000955
  89        -0.00000315
  90        -0.00000559
  91         0.00001469
  92         0.00006183
  93        -0.00038248
  94         0.00000637
  95        -0.00000236
  96        -0.00000063
  97        -0.00008919
  98         0.00002959
  99         0.00000859
 100         0.00003222
 101         0.00003698
 102         0.00003717
 103         0.00000358
 104         0.00000078
 105        -0.00000023
 106         0.99463261
 107         0.02104891
 108         0.00532556
 109        -0.00142242
 110        -0.00084732
 111        -0.00003724
 112        -0.00019024
 113        -0.00009994
 114        -0.00000320
 115        -0.00375127
 116        -0.00401579
 117        -0.00421699
 118         0.00030609
 119         0.00001212
 120         0.00001483
 121         0.00000756
 122        -0.00000943
 123        -0.00000059
 124         0.00001197
 125         0.00000162
 126        -0.00004235
 127        -0.00004260
 128         0.00000423
 129         0.00003921
 130         0.00000497
 131        -0.00001041
 132        -0.00000494
 133        -0.00000324
 134        -0.00000455
 135        -0.00000043
 136         0.00000359
 137         0.00001993
 138        -0.00012456
 139         0.00001879
 140         0.00001233
 141         0.00000063
 142         0.00003856
 143        -0.00014777
 144        -0.00002154
 145        -0.00001730
 146         0.00001397
 147         0.00000575
 148         0.00001046
 149         0.00000282
 150         0.00000069
 151         0.00002369
 152        -0.00000928
 153         0.00000264
 154         0.00001110
 155         0.00000196
 156         0.00002372
 157        -0.00000954
 158         0.00000260
 159         0.00001124
 160         0.00000075
 161        -0.00001225
 162        -0.00007296
 163        -0.00000434
 164        -0.00000812
 165        -0.00000085
Sym=     1a  
Ene=   -20.6000
Spin= Beta
Occup=    1.00000
   1        -0.00000124
   2        -0.00000319
   3         0.00019212
   4         0.00000450
   5         0.00000531
   6         0.00000050
   7        -0.00000162
   8         0.00007095
   9         0.00000947
  10        -0.00000247
  11        -0.00001148
  12         0.00000547
  13         0.00001814
  14         0.00000293
  15        -0.00000364
  16         0.00001279
  17         0.00005375
  18         0.00002833
  19         0.00003241
  20         0.00001606
  21         0.00000045
  22        -0.00020692
  23         0.00031335
  24         0.00005253
  25         0.00002808
  26         0.00002874
  27         0.00002238
  28         0.00003330
  29         0.00000411
  30        -0.00000082
  31        -0.00001116
  32        -0.00004576
  33         0.00020370
  34        -0.00004945
  35         0.00001766
  36         0.00000498
  37         0.00027952
  38        -0.00000953
  39        -0.00001605
  40        -0.00010192
  41         0.00006995
  42        -0.00005508
  43        -0.00006081
  44        -0.00000542
  45         0.00002285
  46        -0.00001526
  47         0.00039842
  48        -0.00081739
  49        -0.00015020
  50        -0.00008674
  51        -0.00000356
  52        -0.00070077
  53        -0.00070189
  54        -0.00005616
  55        -0.00069211
  56        -0.00027589
  57        -0.00004944
  58        -0.00046445
  59        -0.00002240
  60        -0.00001016
  61        -0.00000220
  62        -0.00000938
  63        -0.00019756
  64        -0.00002215
  65        -0.00001501
  66        -0.00000082
  67         0.00024631
  68        -0.00008678
  69        -0.00002467
  70        -0.00000989
  71         0.00000169
  72        -0.00001920
  73        -0.00008980
  74        -0.00001261
  75         0.00000821
  76         0.00000225
  77         0.00002787
  78         0.00010593
  79         0.00002289
  80         0.00000902
  81         0.00000000
  82         0.00002110
  83        -0.00000539
  84        -0.00000181
  85         0.00003477
  86        -0.00003567
  87         0.00000352
  88        -0.00000955
  89        -0.00000315
  90        -0.00000559
  91         0.00001469
  92         0.00006183
  93        -0.00038248
  94         0.00000637
  95        -0.00000236
  96        -0.00000063
  97        -0.00008919
  98         0.00002959
  99         0.00000859
 100         0.00003222
 101         0.00003698
 102         0.00003717
 103         0.00000358
 104         0.00000078
 105        -0.00000023
 106         0.99463261
 107         0.02104891
 108         0.00532556
 109        -0.00142242
 110        -0.00084732
 111        -0.00003724
 112        -0.00019024
 113        -0.00009994
 114        -0.00000320
 115        -0.00375127
 116        -0.00401579
 117        -0.00421699
 118         0.00030609
 119         0.00001212
 120         0.00001483
 121         0.00000756
 122        -0.00000943
 123        -0.00000059
 124         0.00001197
 125         0.00000162
 126        -0.00004235
 127        -0.00004260
 128         0.00000423
 129         0.00003921
 130         0.00000497
 131        -0.00001041
 132        -0.00000494
 133        -0.00000324
 134        -0.00000455
 135        -0.00000043
 136         0.00000359
 137         0.00001993
 138        -0.00012456
 139         0.00001879
 140         0.00001233
 141         0.00000063
 142         0.00003856
 143        -0.00014777
 144        -0.00002154
 145        -0.00001730
 146         0.00001397
 147         0.00000575
 148         0.00001046
 149         0.00000282
 150         0.00000069
 151         0.00002369
 152        -0.00000928
 153         0.00000264
 154         0.00001110
 155         0.00000196
 156         0.00002372
 157        -0.00000954
 158         0.00000260
 159         0.00001124
 160         0.00000075
 161        -0.00001225
 162        -0.00007296
 163        -0.00000434
 164        -0.00000812
 165        -0.00000085
Sym=     2a  
Ene=   -20.5810
Spin= Alpha
Occup=    1.00000
   1        -0.00001293
   2        -0.00006078
   3         0.00033641
   4         0.00000271
   5        -0.00003725
   6        -0.00000516
   7         0.00005500
   8         0.00015946
   9         0.00001814
  10        -0.00000460
  11         0.00000142
  12        -0.00006379
  13         0.00013639
  14         0.00001452
  15         0.00000275
  16        -0.00001332
  17         0.00043283
  18        -0.00101573
  19         0.00013962
  20        -0.00008599
  21        -0.00001878
  22         0.00056682
  23        -0.00034464
  24        -0.00007557
  25        -0.00072777
  26        -0.00028328
  27        -0.00004670
  28         0.00049986
  29         0.00010835
  30        -0.00006437
  31        -0.00001172
  32        -0.00005353
  33         0.00031630
  34         0.00003408
  35         0.00001404
  36         0.00000002
  37        -0.00015300
  38        -0.00012512
  39        -0.00000865
  40        -0.00009779
  41         0.00008964
  42        -0.00005744
  43         0.00009040
  44         0.00001437
  45         0.00001802
  46         0.00001429
  47         0.00006388
  48        -0.00024481
  49        -0.00002923
  50         0.00001556
  51         0.00000361
  52         0.00038151
  53         0.00037033
  54         0.00002903
  55         0.00002319
  56         0.00002608
  57         0.00002650
  58        -0.00003358
  59        -0.00000430
  60         0.00000178
  61        -0.00000414
  62        -0.00003011
  63         0.00068577
  64        -0.00000614
  65         0.00001101
  66         0.00000178
  67        -0.00031728
  68         0.00017033
  69         0.00003943
  70         0.00000895
  71        -0.00000378
  72        -0.00000132
  73        -0.00001848
  74        -0.00000310
  75         0.00000063
  76         0.00000849
  77         0.00005308
  78        -0.00046956
  79        -0.00002265
  80         0.00002013
  81         0.00000387
  82        -0.00014449
  83        -0.00037367
  84        -0.00004202
  85         0.00004150
  86        -0.00003183
  87         0.00001836
  88        -0.00001017
  89        -0.00000274
  90        -0.00000727
  91         0.99464325
  92         0.02109123
  93         0.00507416
  94         0.00144753
  95        -0.00088230
  96        -0.00019309
  97         0.00014803
  98        -0.00009478
  99        -0.00002035
 100        -0.00370469
 101        -0.00394886
 102        -0.00418475
 103        -0.00027892
 104        -0.00006666
 105         0.00005217
 106         0.00001326
 107         0.00006829
 108        -0.00043978
 109        -0.00000663
 110        -0.00000294
 111        -0.00000005
 112         0.00008843
 113         0.00003313
 114        -0.00000029
 115         0.00003757
 116         0.00004206
 117         0.00004009
 118        -0.00000128
 119        -0.00000002
 120         0.00000038
 121        -0.00000574
 122        -0.00012486
 123         0.00000699
 124         0.00001015
 125         0.00000098
 126        -0.00003640
 127        -0.00002642
 128        -0.00001379
 129         0.00004766
 130         0.00000705
 131        -0.00004105
 132        -0.00001617
 133        -0.00004786
 134        -0.00000973
 135         0.00000118
 136         0.00000125
 137         0.00000721
 138         0.00006594
 139         0.00000018
 140         0.00000089
 141         0.00000011
 142        -0.00001319
 143         0.00000531
 144         0.00000144
 145        -0.00000279
 146         0.00000171
 147         0.00000242
 148         0.00000471
 149         0.00000095
 150        -0.00000037
 151         0.00000175
 152        -0.00000511
 153        -0.00000051
 154         0.00000092
 155        -0.00000115
 156         0.00000175
 157        -0.00000513
 158        -0.00000038
 159         0.00000059
 160         0.00000140
 161        -0.00000225
 162         0.00000417
 163        -0.00000210
 164        -0.00000010
 165         0.00000010
Sym=     2a  
Ene=   -20.5810
Spin= Beta
Occup=    1.00000
   1        -0.00001293
   2        -0.00006078
   3         0.00033641
   4         0.00000271
   5        -0.00003725
   6        -0.00000516
   7         0.00005500
   8         0.00015946
   9         0.00001814
  10        -0.00000460
  11         0.00000142
  12        -0.00006379
  13         0.00013639
  14         0.00001452
  15         0.00000275
  16        -0.00001332
  17         0.00043283
  18        -0.00101573
  19         0.00013962
  20        -0.00008599
  21        -0.00001878
  22         0.00056682
  23        -0.00034464
  24        -0.00007557
  25        -0.00072777
  26        -0.00028328
  27        -0.00004670
  28         0.00049986
  29         0.00010835
  30        -0.00006437
  31        -0.00001172
  32        -0.00005353
  33         0.00031630
  34         0.00003408
  35         0.00001404
  36         0.00000002
  37        -0.00015300
  38        -0.00012512
  39        -0.00000865
  40        -0.00009779
  41         0.00008964
  42        -0.00005744
  43         0.00009040
  44         0.00001437
  45         0.00001802
  46         0.00001429
  47         0.00006388
  48        -0.00024481
  49        -0.00002923
  50         0.00001556
  51         0.00000361
  52         0.00038151
  53         0.00037033
  54         0.00002903
  55         0.00002319
  56         0.00002608
  57         0.00002650
  58        -0.00003358
  59        -0.00000430
  60         0.00000178
  61        -0.00000414
  62        -0.00003011
  63         0.00068577
  64        -0.00000614
  65         0.00001101
  66         0.00000178
  67        -0.00031728
  68         0.00017033
  69         0.00003943
  70         0.00000895
  71        -0.00000378
  72        -0.00000132
  73        -0.00001848
  74        -0.00000310
  75         0.00000063
  76         0.00000849
  77         0.00005308
  78        -0.00046956
  79        -0.00002265
  80         0.00002013
  81         0.00000387
  82        -0.00014449
  83        -0.00037367
  84        -0.00004202
  85         0.00004150
  86        -0.00003183
  87         0.00001836
  88        -0.00001017
  89        -0.00000274
  90        -0.00000727
  91         0.99464325
  92         0.02109123
  93         0.00507416
  94         0.00144753
  95        -0.00088230
  96        -0.00019309
  97         0.00014803
  98        -0.00009478
  99        -0.00002035
 100        -0.00370469
 101        -0.00394886
 102        -0.00418475
 103        -0.00027892
 104        -0.00006666
 105         0.00005217
 106         0.00001326
 107         0.00006829
 108        -0.00043978
 109        -0.00000663
 110        -0.00000294
 111        -0.00000005
 112         0.00008843
 113         0.00003313
 114        -0.00000029
 115         0.00003757
 116         0.00004206
 117         0.00004009
 118        -0.00000128
 119        -0.00000002
 120         0.00000038
 121        -0.00000574
 122        -0.00012486
 123         0.00000699
 124         0.00001015
 125         0.00000098
 126        -0.00003640
 127        -0.00002642
 128        -0.00001379
 129         0.00004766
 130         0.00000705
 131        -0.00004105
 132        -0.00001617
 133        -0.00004786
 134        -0.00000973
 135         0.00000118
 136         0.00000125
 137         0.00000721
 138         0.00006594
 139         0.00000018
 140         0.00000089
 141         0.00000011
 142        -0.00001319
 143         0.00000531
 144         0.00000144
 145        -0.00000279
 146         0.00000171
 147         0.00000242
 148         0.00000471
 149         0.00000095
 150        -0.00000037
 151         0.00000175
 152        -0.00000511
 153        -0.00000051
 154         0.00000092
 155        -0.00000115
 156         0.00000175
 157        -0.00000513
 158        -0.00000038
 159         0.00000059
 160         0.00000140
 161        -0.00000225
 162         0.00000417
 163        -0.00000210
 164        -0.00000010
 165         0.00000010
Sym=     3a  
Ene=   -15.6300
Spin= Alpha
Occup=    1.00000
   1         0.99498411
   2         0.02553016
   3        -0.00492370
   4         0.00004261
   5         0.00011869
   6         0.00001154
   7        -0.00124156
   8        -0.00103859
   9        -0.00007125
  10        -0.00328928
  11        -0.00336258
  12        -0.00333676
  13         0.00006539
  14         0.00000603
  15        -0.00000749
  16         0.00001717
  17         0.00021062
  18         0.00177018
  19         0.00002301
  20        -0.00025262
  21        -0.00003492
  22         0.00066207
  23        -0.00209799
  24        -0.00031334
  25        -0.00004486
  26        -0.00016402
  27        -0.00006230
  28        -0.00002923
  29        -0.00000482
  30        -0.00001421
  31        -0.00136351
  32        -0.00001488
  33        -0.00074794
  34         0.00005174
  35         0.00000372
  36        -0.00000227
  37        -0.00045388
  38         0.00073031
  39         0.00012097
  40         0.00006662
  41         0.00004738
  42        -0.00000424
  43        -0.00001231
  44        -0.00000598
  45         0.00000872
  46        -0.00000375
  47        -0.00003817
  48         0.00145369
  49        -0.00002892
  50         0.00000261
  51         0.00000188
  52        -0.00071012
  53        -0.00064383
  54        -0.00004779
  55         0.00000810
  56         0.00002412
  57        -0.00000952
  58         0.00000308
  59        -0.00000071
  60         0.00000510
  61         0.00002730
  62         0.00013445
  63        -0.00213841
  64         0.00001055
  65         0.00004014
  66         0.00000470
  67         0.00139641
  68        -0.00102587
  69        -0.00021031
  70        -0.00002687
  71         0.00003367
  72         0.00002983
  73         0.00001045
  74         0.00000486
  75         0.00000000
  76         0.00001043
  77         0.00014687
  78         0.00279279
  79        -0.00018455
  80         0.00010153
  81         0.00002309
  82        -0.00028020
  83         0.00186727
  84         0.00026284
  85        -0.00011498
  86        -0.00001584
  87        -0.00008203
  88         0.00004306
  89         0.00000776
  90         0.00000794
  91        -0.00002786
  92        -0.00016680
  93         0.00100774
  94        -0.00004393
  95        -0.00001235
  96         0.00000058
  97         0.00033430
  98         0.00021219
  99         0.00001055
 100        -0.00002567
 101        -0.00014566
 102        -0.00012252
 103         0.00004258
 104        -0.00000019
 105        -0.00000587
 106        -0.00001474
 107        -0.00006278
 108         0.00042080
 109         0.00001211
 110        -0.00000624
 111        -0.00000143
 112        -0.00007457
 113         0.00002422
 114         0.00000713
 115        -0.00003389
 116        -0.00004785
 117        -0.00004431
 118        -0.00001182
 119        -0.00000221
 120         0.00000011
 121         0.00001154
 122         0.00044617
 123         0.00004754
 124        -0.00003486
 125        -0.00000713
 126        -0.00010266
 127        -0.00000313
 128         0.00000747
 129        -0.00000077
 130        -0.00000052
 131         0.00010414
 132        -0.00000853
 133        -0.00013240
 134        -0.00007010
 135        -0.00000256
 136        -0.00000560
 137        -0.00000333
 138        -0.00056032
 139         0.00003179
 140        -0.00000927
 141        -0.00000292
 142         0.00012997
 143        -0.00007253
 144        -0.00001685
 145        -0.00001703
 146        -0.00001254
 147        -0.00002480
 148        -0.00000871
 149        -0.00000165
 150         0.00000238
 151         0.00001088
 152         0.00001381
 153         0.00000470
 154        -0.00000612
 155         0.00000799
 156         0.00001092
 157         0.00001400
 158         0.00000375
 159        -0.00000379
 160        -0.00000975
 161        -0.00000275
 162         0.00005691
 163         0.00000281
 164         0.00000703
 165         0.00000079
Sym=     3a  
Ene=   -15.6300
Spin= Beta
Occup=    1.00000
   1         0.99498411
   2         0.02553016
   3        -0.00492370
   4         0.00004261
   5         0.00011869
   6         0.00001154
   7        -0.00124156
   8        -0.00103859
   9        -0.00007125
  10        -0.00328928
  11        -0.00336258
  12        -0.00333676
  13         0.00006539
  14         0.00000603
  15        -0.00000749
  16         0.00001717
  17         0.00021062
  18         0.00177018
  19         0.00002301
  20        -0.00025262
  21        -0.00003492
  22         0.00066207
  23        -0.00209799
  24        -0.00031334
  25        -0.00004486
  26        -0.00016402
  27        -0.00006230
  28        -0.00002923
  29        -0.00000482
  30        -0.00001421
  31        -0.00136351
  32        -0.00001488
  33        -0.00074794
  34         0.00005174
  35         0.00000372
  36        -0.00000227
  37        -0.00045388
  38         0.00073031
  39         0.00012097
  40         0.00006662
  41         0.00004738
  42        -0.00000424
  43        -0.00001231
  44        -0.00000598
  45         0.00000872
  46        -0.00000375
  47        -0.00003817
  48         0.00145369
  49        -0.00002892
  50         0.00000261
  51         0.00000188
  52        -0.00071012
  53        -0.00064383
  54        -0.00004779
  55         0.00000810
  56         0.00002412
  57        -0.00000952
  58         0.00000308
  59        -0.00000071
  60         0.00000510
  61         0.00002730
  62         0.00013445
  63        -0.00213841
  64         0.00001055
  65         0.00004014
  66         0.00000470
  67         0.00139641
  68        -0.00102587
  69        -0.00021031
  70        -0.00002687