[Molden Format]
[N_Atoms]
                   15
[Atoms] (AU)
N1          1      7           0.29271638     -3.14456875     -0.00000042
C2          2      6           2.57447240     -1.86182603     -0.00009873
N3          3      7           2.24848863      0.73728505     -0.00001529
C4          4      6          -0.01147676      2.12094743      0.00012988
C5          5      6          -2.29681176      0.56637035      0.00002409
C6          6      6          -2.03968758     -1.97929157      0.00004376
O7          7      8           4.63470169     -2.91477297      0.00001588
O8          8      8           0.01648922      4.44470173     -0.00001514
H9          9      1           0.43997826     -5.04315817     -0.00005564
H10        10      1           3.86200112      1.76372138      0.00000689
C11        11      6          -4.78904357      1.89908204     -0.00000199
H12        12      1          -3.64630548     -3.24317312      0.00005613
H13        13      1          -6.34434758      0.55231748     -0.00001536
H14        14      1          -4.95793053      3.11020793      1.65559260
H15        15      1          -4.95787645      3.11012907     -1.65566662
[Charge] (Mulliken)
   0.0000000000000000     
   0.0000000000000000     
   0.0000000000000000     
   0.0000000000000000     
   0.0000000000000000     
   0.0000000000000000     
   0.0000000000000000     
   0.0000000000000000     
   0.0000000000000000     
   0.0000000000000000     
   0.0000000000000000     
   0.0000000000000000     
   0.0000000000000000     
   0.0000000000000000     
   0.0000000000000000     
[GTO] (AU)
   1
   s   6
  0.417351146E+04  0.183477216E-02
  0.627457911E+03  0.139946270E-01
  0.142902093E+03  0.685865518E-01
  0.402343293E+02  0.232240873E+00
  0.128202129E+02  0.469069948E+00
  0.439043701E+01  0.360455199E+00
   s   3
  0.116263619E+02 -0.114961182E+00
  0.271627981E+01 -0.169117479E+00
  0.772218397E+00  0.114585195E+01
   s   1
  0.212031497E+00  0.100000000E+01
   p   3
  0.116263619E+02  0.675797439E-01
  0.271627981E+01  0.323907296E+00
  0.772218397E+00  0.740895140E+00
   p   1
  0.212031497E+00  0.100000000E+01
   d   1
  0.800000000E+00  0.100000000E+01
 
   2
   s   6
  0.304752488E+04  0.183473713E-02
  0.457369518E+03  0.140373228E-01
  0.103948685E+03  0.688426223E-01
  0.292101553E+02  0.232184443E+00
  0.928666296E+01  0.467941348E+00
  0.316392696E+01  0.362311985E+00
   s   3
  0.786827235E+01 -0.119332420E+00
  0.188128854E+01 -0.160854152E+00
  0.544249258E+00  0.114345644E+01
   s   1
  0.168714478E+00  0.100000000E+01
   p   3
  0.786827235E+01  0.689990666E-01
  0.188128854E+01  0.316423961E+00
  0.544249258E+00  0.744308291E+00
   p   1
  0.168714478E+00  0.100000000E+01
   d   1
  0.800000000E+00  0.100000000E+01
 
   3
   s   6
  0.417351146E+04  0.183477216E-02
  0.627457911E+03  0.139946270E-01
  0.142902093E+03  0.685865518E-01
  0.402343293E+02  0.232240873E+00
  0.128202129E+02  0.469069948E+00
  0.439043701E+01  0.360455199E+00
   s   3
  0.116263619E+02 -0.114961182E+00
  0.271627981E+01 -0.169117479E+00
  0.772218397E+00  0.114585195E+01
   s   1
  0.212031497E+00  0.100000000E+01
   p   3
  0.116263619E+02  0.675797439E-01
  0.271627981E+01  0.323907296E+00
  0.772218397E+00  0.740895140E+00
   p   1
  0.212031497E+00  0.100000000E+01
   d   1
  0.800000000E+00  0.100000000E+01
 
   4
   s   6
  0.304752488E+04  0.183473713E-02
  0.457369518E+03  0.140373228E-01
  0.103948685E+03  0.688426223E-01
  0.292101553E+02  0.232184443E+00
  0.928666296E+01  0.467941348E+00
  0.316392696E+01  0.362311985E+00
   s   3
  0.786827235E+01 -0.119332420E+00
  0.188128854E+01 -0.160854152E+00
  0.544249258E+00  0.114345644E+01
   s   1
  0.168714478E+00  0.100000000E+01
   p   3
  0.786827235E+01  0.689990666E-01
  0.188128854E+01  0.316423961E+00
  0.544249258E+00  0.744308291E+00
   p   1
  0.168714478E+00  0.100000000E+01
   d   1
  0.800000000E+00  0.100000000E+01
 
   5
   s   6
  0.304752488E+04  0.183473713E-02
  0.457369518E+03  0.140373228E-01
  0.103948685E+03  0.688426223E-01
  0.292101553E+02  0.232184443E+00
  0.928666296E+01  0.467941348E+00
  0.316392696E+01  0.362311985E+00
   s   3
  0.786827235E+01 -0.119332420E+00
  0.188128854E+01 -0.160854152E+00
  0.544249258E+00  0.114345644E+01
   s   1
  0.168714478E+00  0.100000000E+01
   p   3
  0.786827235E+01  0.689990666E-01
  0.188128854E+01  0.316423961E+00
  0.544249258E+00  0.744308291E+00
   p   1
  0.168714478E+00  0.100000000E+01
   d   1
  0.800000000E+00  0.100000000E+01
 
   6
   s   6
  0.304752488E+04  0.183473713E-02
  0.457369518E+03  0.140373228E-01
  0.103948685E+03  0.688426223E-01
  0.292101553E+02  0.232184443E+00
  0.928666296E+01  0.467941348E+00
  0.316392696E+01  0.362311985E+00
   s   3
  0.786827235E+01 -0.119332420E+00
  0.188128854E+01 -0.160854152E+00
  0.544249258E+00  0.114345644E+01
   s   1
  0.168714478E+00  0.100000000E+01
   p   3
  0.786827235E+01  0.689990666E-01
  0.188128854E+01  0.316423961E+00
  0.544249258E+00  0.744308291E+00
   p   1
  0.168714478E+00  0.100000000E+01
   d   1
  0.800000000E+00  0.100000000E+01
 
   7
   s   6
  0.548467166E+04  0.183107443E-02
  0.825234946E+03  0.139501722E-01
  0.188046958E+03  0.684450781E-01
  0.529645000E+02  0.232714336E+00
  0.168975704E+02  0.470192898E+00
  0.579963534E+01  0.358520853E+00
   s   3
  0.155396162E+02 -0.110777550E+00
  0.359993359E+01 -0.148026263E+00
  0.101376175E+01  0.113076702E+01
   s   1
  0.270005823E+00  0.100000000E+01
   p   3
  0.155396162E+02  0.708742682E-01
  0.359993359E+01  0.339752839E+00
  0.101376175E+01  0.727158577E+00
   p   1
  0.270005823E+00  0.100000000E+01
   d   1
  0.800000000E+00  0.100000000E+01
 
   8
   s   6
  0.548467166E+04  0.183107443E-02
  0.825234946E+03  0.139501722E-01
  0.188046958E+03  0.684450781E-01
  0.529645000E+02  0.232714336E+00
  0.168975704E+02  0.470192898E+00
  0.579963534E+01  0.358520853E+00
   s   3
  0.155396162E+02 -0.110777550E+00
  0.359993359E+01 -0.148026263E+00
  0.101376175E+01  0.113076702E+01
   s   1
  0.270005823E+00  0.100000000E+01
   p   3
  0.155396162E+02  0.708742682E-01
  0.359993359E+01  0.339752839E+00
  0.101376175E+01  0.727158577E+00
   p   1
  0.270005823E+00  0.100000000E+01
   d   1
  0.800000000E+00  0.100000000E+01
 
   9
   s   3
  0.187311370E+02  0.334946043E-01
  0.282539437E+01  0.234726954E+00
  0.640121692E+00  0.813757326E+00
   s   1
  0.161277759E+00  0.100000000E+01
   p   1
  0.110000000E+01  0.100000000E+01
 
  10
   s   3
  0.187311370E+02  0.334946043E-01
  0.282539437E+01  0.234726954E+00
  0.640121692E+00  0.813757326E+00
   s   1
  0.161277759E+00  0.100000000E+01
   p   1
  0.110000000E+01  0.100000000E+01
 
  11
   s   6
  0.304752488E+04  0.183473713E-02
  0.457369518E+03  0.140373228E-01
  0.103948685E+03  0.688426223E-01
  0.292101553E+02  0.232184443E+00
  0.928666296E+01  0.467941348E+00
  0.316392696E+01  0.362311985E+00
   s   3
  0.786827235E+01 -0.119332420E+00
  0.188128854E+01 -0.160854152E+00
  0.544249258E+00  0.114345644E+01
   s   1
  0.168714478E+00  0.100000000E+01
   p   3
  0.786827235E+01  0.689990666E-01
  0.188128854E+01  0.316423961E+00
  0.544249258E+00  0.744308291E+00
   p   1
  0.168714478E+00  0.100000000E+01
   d   1
  0.800000000E+00  0.100000000E+01
 
  12
   s   3
  0.187311370E+02  0.334946043E-01
  0.282539437E+01  0.234726954E+00
  0.640121692E+00  0.813757326E+00
   s   1
  0.161277759E+00  0.100000000E+01
   p   1
  0.110000000E+01  0.100000000E+01
 
  13
   s   3
  0.187311370E+02  0.334946043E-01
  0.282539437E+01  0.234726954E+00
  0.640121692E+00  0.813757326E+00
   s   1
  0.161277759E+00  0.100000000E+01
   p   1
  0.110000000E+01  0.100000000E+01
 
  14
   s   3
  0.187311370E+02  0.334946043E-01
  0.282539437E+01  0.234726954E+00
  0.640121692E+00  0.813757326E+00
   s   1
  0.161277759E+00  0.100000000E+01
   p   1
  0.110000000E+01  0.100000000E+01
 
  15
   s   3
  0.187311370E+02  0.334946043E-01
  0.282539437E+01  0.234726954E+00
  0.640121692E+00  0.813757326E+00
   s   1
  0.161277759E+00  0.100000000E+01
   p   1
  0.110000000E+01  0.100000000E+01
 
[MO]
Sym=     1a  
Ene=   -20.6870
Spin= Alpha
Occup=    2.00000
   1        -0.00001848
   2         0.00004581
   3         0.00004845
   4         0.00010641
   5         0.00000277
   6         0.00000000
   7         0.00006175
   8         0.00000161
   9         0.00000000
  10        -0.00000000
  11         0.00000000
  12        -0.00000000
  13        -0.00000000
  14         0.00000000
  15         0.00000000
  16         0.00004938
  17         0.00072803
  18         0.00080951
  19         0.00095237
  20        -0.00048717
  21         0.00000005
  22         0.00059475
  23        -0.00030424
  24         0.00000003
  25        -0.00000000
  26        -0.00000000
  27        -0.00000000
  28         0.00000000
  29         0.00000000
  30        -0.00000000
  31        -0.00002290
  32         0.00003382
  33         0.00003594
  34         0.00007119
  35        -0.00010595
  36         0.00000000
  37         0.00004132
  38        -0.00006149
  39         0.00000000
  40        -0.00000000
  41        -0.00000000
  42         0.00000000
  43        -0.00000000
  44        -0.00000000
  45         0.00000000
  46        -0.00002300
  47        -0.00015558
  48        -0.00017273
  49        -0.00000145
  50        -0.00022792
  51         0.00000001
  52        -0.00000091
  53        -0.00014234
  54         0.00000001
  55         0.00000000
  56         0.00000000
  57         0.00000000
  58        -0.00000000
  59        -0.00000000
  60        -0.00000000
  61         0.00000349
  62        -0.00001109
  63        -0.00001242
  64        -0.00001208
  65        -0.00001959
  66         0.00000000
  67        -0.00000754
  68        -0.00001223
  69         0.00000000
  70        -0.00000000
  71         0.00000000
  72        -0.00000000
  73         0.00000000
  74         0.00000000
  75        -0.00000000
  76        -0.00001249
  77        -0.00000078
  78        -0.00000060
  79         0.00000171
  80        -0.00000122
  81         0.00000000
  82         0.00000107
  83        -0.00000076
  84         0.00000000
  85         0.00000000
  86         0.00000000
  87         0.00000000
  88        -0.00000000
  89        -0.00000000
  90         0.00000000
  91         0.97363503
  92         0.01822526
  93        -0.00294347
  94        -0.00001952
  95         0.00000997
  96        -0.00000000
  97        -0.00001322
  98         0.00000675
  99        -0.00000000
 100         0.00000000
 101        -0.00000000
 102         0.00000000
 103        -0.00000000
 104         0.00000000
 105        -0.00000000
 106        -0.20910971
 107        -0.00391459
 108         0.00063188
 109        -0.00000002
 110         0.00000506
 111        -0.00000000
 112        -0.00000001
 113         0.00000343
 114        -0.00000000
 115         0.00000000
 116        -0.00000000
 117        -0.00000000
 118         0.00000000
 119        -0.00000000
 120        -0.00000000
 121         0.00002996
 122         0.00003345
 123         0.00000000
 124         0.00000000
 125         0.00000000
 126         0.00002171
 127         0.00002424
 128        -0.00000000
 129         0.00000000
 130         0.00000000
 131        -0.00000094
 132        -0.00000263
 133        -0.00000291
 134        -0.00000569
 135        -0.00000286
 136         0.00000000
 137        -0.00000355
 138        -0.00000179
 139         0.00000000
 140         0.00000000
 141         0.00000000
 142         0.00000000
 143        -0.00000000
 144         0.00000000
 145         0.00000000
 146        -0.00000022
 147        -0.00000024
 148         0.00000000
 149        -0.00000000
 150         0.00000000
 151        -0.00000006
 152        -0.00000007
 153        -0.00000000
 154        -0.00000000
 155         0.00000000
 156        -0.00000218
 157        -0.00000244
 158         0.00000000
 159        -0.00000000
 160        -0.00000000
 161        -0.00000218
 162        -0.00000244
 163        -0.00000000
 164         0.00000000
 165        -0.00000000
Sym=     2a  
Ene=   -20.6870
Spin= Alpha
Occup=    2.00000
   1        -0.00001793
   2         0.00000797
   3         0.00000871
   4         0.00002300
   5        -0.00000072
   6         0.00000000
   7         0.00001335
   8        -0.00000042
   9         0.00000000
  10        -0.00000000
  11         0.00000000
  12        -0.00000000
  13        -0.00000000
  14         0.00000000
  15         0.00000000
  16        -0.00000486
  17         0.00015543
  18         0.00017315
  19         0.00020446
  20        -0.00010273
  21         0.00000001
  22         0.00012768
  23        -0.00006415
  24         0.00000001
  25         0.00000000
  26         0.00000000
  27         0.00000000
  28         0.00000000
  29         0.00000000
  30        -0.00000000
  31        -0.00001371
  32         0.00005727
  33         0.00006039
  34        -0.00004141
  35         0.00007718
  36        -0.00000000
  37        -0.00002403
  38         0.00004479
  39        -0.00000000
  40         0.00000000
  41         0.00000000
  42         0.00000000
  43        -0.00000000
  44         0.00000000
  45         0.00000000
  46         0.00003471
  47         0.00071902
  48         0.00079979
  49         0.00001304
  50         0.00105839
  51        -0.00000007
  52         0.00000814
  53         0.00066096
  54        -0.00000004
  55        -0.00000000
  56         0.00000000
  57         0.00000000
  58         0.00000000
  59        -0.00000000
  60        -0.00000000
  61        -0.00004047
  62         0.00004593
  63         0.00005200
  64         0.00005261
  65         0.00009302
  66        -0.00000000
  67         0.00003286
  68         0.00005809
  69        -0.00000000
  70        -0.00000000
  71         0.00000000
  72         0.00000000
  73         0.00000000
  74        -0.00000000
  75         0.00000000
  76        -0.00002281
  77        -0.00000159
  78        -0.00000128
  79         0.00000058
  80         0.00000167
  81        -0.00000000
  82         0.00000036
  83         0.00000104
  84        -0.00000000
  85        -0.00000000
  86         0.00000000
  87         0.00000000
  88         0.00000000
  89        -0.00000000
  90         0.00000000
  91         0.20911088
  92         0.00391385
  93        -0.00063261
  94        -0.00000386
  95         0.00000190
  96        -0.00000000
  97        -0.00000261
  98         0.00000129
  99        -0.00000000
 100         0.00000000
 101        -0.00000000
 102        -0.00000000
 103         0.00000000
 104         0.00000000
 105         0.00000000
 106         0.97363886
 107         0.01822460
 108        -0.00294418
 109        -0.00000030
 110        -0.00002159
 111         0.00000000
 112        -0.00000021
 113        -0.00001462
 114         0.00000000
 115        -0.00000000
 116        -0.00000000
 117        -0.00000000
 118         0.00000000
 119         0.00000000
 120         0.00000000
 121         0.00000621
 122         0.00000693
 123        -0.00000000
 124        -0.00000000
 125         0.00000000
 126         0.00003670
 127         0.00004098
 128        -0.00000000
 129         0.00000000
 130         0.00000000
 131         0.00000420
 132         0.00001180
 133         0.00001305
 134         0.00002584
 135         0.00001365
 136        -0.00000000
 137         0.00001614
 138         0.00000852
 139        -0.00000000
 140         0.00000000
 141         0.00000000
 142         0.00000000
 143        -0.00000000
 144        -0.00000000
 145        -0.00000000
 146        -0.00000053
 147        -0.00000060
 148         0.00000000
 149        -0.00000000
 150         0.00000000
 151         0.00000016
 152         0.00000018
 153         0.00000000
 154        -0.00000000
 155        -0.00000000
 156         0.00001006
 157         0.00001123
 158        -0.00000000
 159         0.00000000
 160        -0.00000000
 161         0.00001006
 162         0.00001123
 163         0.00000000
 164        -0.00000000
 165        -0.00000000
Sym=     3a  
Ene=   -15.6440
Spin= Alpha
Occup=    2.00000
   1         0.77481636
   2         0.01561768
   3         0.00157516
   4         0.00005823
   5         0.00012899
   6        -0.00000000
   7         0.00003379
   8         0.00007486
   9        -0.00000000
  10        -0.00000000
  11        -0.00000000
  12        -0.00000000
  13         0.00000000
  14        -0.00000000
  15        -0.00000000
  16         0.00139256
  17         0.00135265
  18         0.00147618
  19        -0.00105494
  20         0.00033263
  21         0.00000007
  22        -0.00065881
  23         0.00020773
  24         0.00000004
  25         0.00000000
  26         0.00000000
  27         0.00000000
  28        -0.00000000
  29        -0.00000000
  30         0.00000000
  31         0.62311315
  32         0.01258755
  33         0.00129583
  34        -0.00008218
  35        -0.00015180
  36         0.00000000
  37        -0.00004769
  38        -0.00008810
  39         0.00000000
  40        -0.00000000
  41        -0.00000000
  42        -0.00000000
  43         0.00000000
  44        -0.00000000
  45         0.00000000
  46         0.00061653
  47         0.00061261
  48         0.00066886
  49         0.00072294
  50        -0.00050643
  51        -0.00000005
  52         0.00045147
  53        -0.00031627
  54        -0.00000003
  55        -0.00000000
  56        -0.00000000
  57         0.00000000
  58        -0.00000000
  59        -0.00000000
  60         0.00000000
  61         0.00002591
  62         0.00014290
  63         0.00015855
  64         0.00022400
  65        -0.00013024
  66        -0.00000000
  67         0.00013989
  68        -0.00008134
  69        -0.00000000
  70        -0.00000000
  71        -0.00000000
  72        -0.00000000
  73         0.00000000
  74         0.00000000
  75        -0.00000000
  76         0.00086674
  77         0.00079420
  78         0.00086567
  79         0.00103543
  80        -0.00045121
  81        -0.00000002
  82         0.00064662
  83        -0.00028178
  84        -0.00000001
  85        -0.00000000
  86        -0.00000000
  87        -0.00000000
  88         0.00000000
  89         0.00000000
  90        -0.00000000
  91        -0.00004292
  92         0.00010481
  93         0.00010073
  94        -0.00015235
  95         0.00006339
  96        -0.00000000
  97        -0.00010319
  98         0.00004293
  99        -0.00000000
 100         0.00000000
 101         0.00000000
 102         0.00000000
 103         0.00000000
 104        -0.00000000
 105         0.00000000
 106        -0.00001742
 107         0.00004891
 108         0.00004695
 109         0.00004896
 110        -0.00007652
 111        -0.00000000
 112         0.00003316
 113        -0.00005183
 114        -0.00000000
 115        -0.00000000
 116         0.00000000
 117        -0.00000000
 118        -0.00000000
 119        -0.00000000
 120         0.00000000
 121         0.00100054
 122         0.00111715
 123        -0.00000000
 124         0.00000000
 125        -0.00000000
 126         0.00079957
 127         0.00089276
 128         0.00000000
 129         0.00000000
 130        -0.00000000
 131        -0.00007326
 132        -0.00000305
 133        -0.00000183
 134         0.00000367
 135        -0.00000209
 136        -0.00000000
 137         0.00000229
 138        -0.00000131
 139        -0.00000000
 140         0.00000000
 141         0.00000000
 142         0.00000000
 143        -0.00000000
 144         0.00000000
 145        -0.00000000
 146         0.00012882
 147         0.00014384
 148        -0.00000000
 149        -0.00000000
 150        -0.00000000
 151        -0.00000118
 152        -0.00000132
 153         0.00000000
 154         0.00000000
 155         0.00000000
 156        -0.00000118
 157        -0.00000131
 158         0.00000000
 159         0.00000000
 160         0.00000000
 161        -0.00000118
 162        -0.00000131
 163        -0.00000000
 164         0.00000000
 165         0.00000000
Sym=     4a  
Ene=   -15.6420
Spin= Alpha
Occup=    2.00000
   1        -0.62325254
   2        -0.01242083
   3        -0.00111813
   4         0.00007194
   5         0.00014817
   6         0.00000000
   7         0.00004175
   8         0.00008599
   9         0.00000000
  10        -0.00000000
  11        -0.00000000
  12        -0.00000000
  13         0.00000000
  14        -0.00000000
  15         0.00000000
  16         0.00013703
  17         0.00014401
  18         0.00015740
  19         0.00062493
  20         0.00149868
  21         0.00000000
  22         0.00039027
  23         0.00093592
  24         0.00000000
  25         0.00000000
  26         0.00000000
  27         0.00000000
  28        -0.00000000
  29         0.00000000
  30        -0.00000000
  31         0.77496342
  32         0.01547781
  33         0.00142551
  34         0.00006229
  35         0.00011754
  36         0.00000000
  37         0.00003615
  38         0.00006821
  39         0.00000000
  40        -0.00000000
  41        -0.00000000
  42        -0.00000000
  43         0.00000000
  44         0.00000000
  45        -0.00000000
  46         0.00067164
  47         0.00069773
  48         0.00076245
  49         0.00089150
  50        -0.00049706
  51        -0.00000006
  52         0.00055674
  53        -0.00031041
  54        -0.00000004
  55         0.00000000
  56         0.00000000
  57        -0.00000000
  58        -0.00000000
  59         0.00000000
  60        -0.00000000
  61         0.00003406
  62         0.00001389
  63         0.00001473
  64         0.00008038
  65         0.00010858
  66        -0.00000000
  67         0.00005019
  68         0.00006781
  69        -0.00000000
  70        -0.00000000
  71        -0.00000000
  72        -0.00000000
  73        -0.00000000
  74         0.00000000
  75        -0.00000000
  76        -0.00059579
  77        -0.00057133
  78        -0.00062334
  79        -0.00071712
  80         0.00043653
  81         0.00000001
  82        -0.00044784
  83         0.00027262
  84         0.00000001
  85         0.00000000
  86         0.00000000
  87         0.00000000
  88        -0.00000000
  89         0.00000000
  90         0.00000000
  91         0.00000123
  92         0.00000966
  93         0.00000918
  94         0.00003260
  95         0.00009861
  96        -0.00000000
  97         0.00002208
  98         0.00006679
  99        -0.00000000
 100        -0.00000000
 101        -0.00000000
 102        -0.00000000
 103        -0.00000000
 104         0.00000000
 105        -0.00000000
 106        -0.00006391
 107         0.00006160
 108         0.00006000
 109         0.00006071
 110        -0.00009358
 111        -0.00000000
 112         0.00004112
 113        -0.00006338
 114        -0.00000000
 115        -0.00000000
 116        -0.00000000
 117        -0.00000000
 118        -0.00000000
 119        -0.00000000
 120        -0.00000000
 121        -0.00079626
 122        -0.00088906
 123        -0.00000000
 124        -0.00000000
 125         0.00000000
 126         0.00098392
 127         0.00109860
 128         0.00000000
 129         0.00000000
 130         0.00000000
 131        -0.00000425
 132        -0.00000005
 133         0.00000004
 134         0.00000099
 135         0.00000019
 136        -0.00000000
 137         0.00000062
 138         0.00000012
 139        -0.00000000
 140         0.00000000
 141         0.00000000
 142         0.00000000
 143         0.00000000
 144         0.00000000
 145         0.00000000
 146        -0.00010168
 147        -0.00011353
 148        -0.00000000
 149         0.00000000
 150        -0.00000000
 151        -0.00000005
 152        -0.00000006
 153        -0.00000000
 154        -0.00000000
 155         0.00000000
 156        -0.00000018
 157        -0.00000020
 158        -0.00000000
 159        -0.00000000
 160        -0.00000000
 161        -0.00000017
 162        -0.00000020
 163        -0.00000000
 164         0.00000000
 165        -0.00000000
Sym=     5a  
Ene=   -11.3530
Spin= Alpha
Occup=    2.00000
   1        -0.00185595
   2         0.00113349
   3         0.00122545
   4        -0.00129598
   5         0.00088454
   6         0.00000002
   7        -0.00075211
   8         0.00051334
   9         0.00000001
  10        -0.00000000
  11        -0.00000000
  12        -0.00000000
  13        -0.00000000
  14         0.00000000
  15        -0.00000000
  16         0.02805457
  17         0.00069623
  18         0.00017464
  19        -0.00031152
  20         0.00013114
  21         0.00000001
  22        -0.00019454
  23         0.00008190
  24         0.00000001
  25         0.00000000
  26         0.00000000
  27         0.00000000
  28         0.00000000
  29        -0.00000000
  30         0.00000000
  31        -0.00148482
  32         0.00089401
  33         0.00096695
  34        -0.00113950
  35         0.00041099
  36         0.00000006
  37        -0.00066130
  38         0.00023852
  39         0.00000003
  40         0.00000000
  41         0.00000000
  42         0.00000000
  43        -0.00000000
  44         0.00000000
  45         0.00000000
  46         0.40169082
  47         0.00856028
  48         0.00093236
  49        -0.00133411
  50        -0.00097291
  51        -0.00000007
  52        -0.00083315
  53        -0.00060758
  54        -0.00000004
  55        -0.00000000
  56        -0.00000000
  57         0.00000000
  58        -0.00000000
  59         0.00000000
  60         0.00000000
  61         0.68185785
  62         0.01453714
  63         0.00158969
  64         0.00032266
  65        -0.00057831
  66         0.00000004
  67         0.00020150
  68        -0.00036116
  69         0.00000002
  70        -0.00000000
  71         0.00000000
  72        -0.00000000
  73         0.00000000
  74        -0.00000000
  75         0.00000000
  76         0.51932846
  77         0.01095783
  78         0.00108362
  79        -0.00013890
  80         0.00193386
  81        -0.00000001
  82        -0.00008674
  83         0.00120770
  84        -0.00000001
  85        -0.00000000
  86        -0.00000000
  87         0.00000000
  88         0.00000000
  89        -0.00000000
  90        -0.00000000
  91         0.00001420
  92         0.00007557
  93         0.00007168
  94        -0.00009027
  95         0.00004614
  96        -0.00000000
  97        -0.00006114
  98         0.00003125
  99        -0.00000000
 100        -0.00000000
 101        -0.00000000
 102        -0.00000000
 103         0.00000000
 104         0.00000000
 105         0.00000000
 106        -0.00080023
 107         0.00127848
 108         0.00123440
 109        -0.00010150
 110        -0.00154332
 111         0.00000009
 112        -0.00006875
 113        -0.00104534
 114         0.00000006
 115        -0.00000000
 116         0.00000000
 117        -0.00000000
 118         0.00000000
 119         0.00000000
 120         0.00000000
 121         0.00016243
 122         0.00018136
 123         0.00000000
 124         0.00000000
 125        -0.00000000
 126         0.00013726
 127         0.00015325
 128         0.00000000
 129         0.00000000
 130         0.00000000
 131         0.29777307
 132         0.00655147
 133         0.00092022
 134         0.00137585
 135        -0.00074954
 136         0.00000002
 137         0.00085921
 138        -0.00046808
 139         0.00000001
 140         0.00000000
 141         0.00000000
 142         0.00000000
 143        -0.00000000
 144        -0.00000000
 145        -0.00000000
 146         0.00119791
 147         0.00133753
 148         0.00000000
 149        -0.00000000
 150        -0.00000000
 151         0.00079300
 152         0.00088542
 153         0.00000000
 154         0.00000000
 155        -0.00000000
 156         0.00077670
 157         0.00086722
 158        -0.00000000
 159         0.00000000
 160        -0.00000000
 161         0.00077670
 162         0.00086723
 163         0.00000000
 164        -0.00000000
 165        -0.00000000
Sym=     6a  
Ene=   -11.3440
Spin= Alpha
Occup=    2.00000
   1        -0.00308410
   2         0.00188134
   3         0.00203404
   4         0.00221620
   5         0.00133284
   6        -0.00000010
   7         0.00128616
   8         0.00077351
   9        -0.00000006
  10         0.00000000
  11         0.00000000
  12         0.00000000
  13        -0.00000000
  14        -0.00000000
  15        -0.00000000
  16         0.98835675
  17         0.01837852
  18        -0.00069417
  19         0.00002499
  20        -0.00003431
  21         0.00000001
  22         0.00001560
  23        -0.00002143
  24         0.00000001
  25         0.00000000
  26        -0.00000000
  27         0.00000000
  28        -0.00000000
  29        -0.00000000
  30        -0.00000000
  31        -0.00267830
  32         0.00164277
  33         0.00177583
  34         0.00053664
  35        -0.00275404
  36        -0.00000010
  37         0.00031144
  38        -0.00159830
  39        -0.00000006
  40         0.00000000
  41         0.00000000
  42        -0.00000000
  43        -0.00000000
  44        -0.00000000
  45        -0.00000000
  46        -0.09728815
  47        -0.00167171
  48         0.00022127
  49         0.00014032
  50        -0.00025956
  51        -0.00000001
  52         0.00008763
  53        -0.00016210
  54        -0.00000001
  55         0.00000000
  56        -0.00000000
  57         0.00000000
  58        -0.00000000
  59         0.00000000
  60        -0.00000000
  61         0.00244720
  62        -0.00001399
  63        -0.00006796
  64         0.00000439
  65        -0.00029330
  66        -0.00000001
  67         0.00000274
  68        -0.00018316
  69        -0.00000001
  70         0.00000000