[Molden Format]
[N_Atoms]
                   15
[Atoms] (AU)
N1          1      7           0.29271638     -3.14456875     -0.00000042
C2          2      6           2.57447240     -1.86182603     -0.00009873
N3          3      7           2.24848863      0.73728505     -0.00001529
C4          4      6          -0.01147676      2.12094743      0.00012988
C5          5      6          -2.29681176      0.56637035      0.00002409
C6          6      6          -2.03968758     -1.97929157      0.00004376
O7          7      8           4.63470169     -2.91477297      0.00001588
O8          8      8           0.01648922      4.44470173     -0.00001514
H9          9      1           0.43997826     -5.04315817     -0.00005564
H10        10      1           3.86200112      1.76372138      0.00000689
C11        11      6          -4.78904357      1.89908204     -0.00000199
H12        12      1          -3.64630548     -3.24317312      0.00005613
H13        13      1          -6.34434758      0.55231748     -0.00001536
H14        14      1          -4.95793053      3.11020793      1.65559260
H15        15      1          -4.95787645      3.11012907     -1.65566662
[Charge] (Mulliken)
 -0.78749278091142028     
   1.0298297190812127     
 -0.83852605855821949     
  0.83732195616849747     
 -0.21433843010590614     
  0.20817011590352497     
 -0.61777815960761728     
 -0.60799053427520633     
  0.34638797323544257     
  0.35302809873960372     
 -0.31347667871393092     
  0.19544679554046807     
  0.11171897247580287     
  0.14884917073540016     
  0.14884984028888992     
[GTO] (AU)
   1
   s   6
  0.417351146E+04  0.183477216E-02
  0.627457911E+03  0.139946270E-01
  0.142902093E+03  0.685865518E-01
  0.402343293E+02  0.232240873E+00
  0.128202129E+02  0.469069948E+00
  0.439043701E+01  0.360455199E+00
   s   3
  0.116263619E+02 -0.114961182E+00
  0.271627981E+01 -0.169117479E+00
  0.772218397E+00  0.114585195E+01
   s   1
  0.212031497E+00  0.100000000E+01
   p   3
  0.116263619E+02  0.675797439E-01
  0.271627981E+01  0.323907296E+00
  0.772218397E+00  0.740895140E+00
   p   1
  0.212031497E+00  0.100000000E+01
   d   1
  0.800000000E+00  0.100000000E+01
 
   2
   s   6
  0.304752488E+04  0.183473713E-02
  0.457369518E+03  0.140373228E-01
  0.103948685E+03  0.688426223E-01
  0.292101553E+02  0.232184443E+00
  0.928666296E+01  0.467941348E+00
  0.316392696E+01  0.362311985E+00
   s   3
  0.786827235E+01 -0.119332420E+00
  0.188128854E+01 -0.160854152E+00
  0.544249258E+00  0.114345644E+01
   s   1
  0.168714478E+00  0.100000000E+01
   p   3
  0.786827235E+01  0.689990666E-01
  0.188128854E+01  0.316423961E+00
  0.544249258E+00  0.744308291E+00
   p   1
  0.168714478E+00  0.100000000E+01
   d   1
  0.800000000E+00  0.100000000E+01
 
   3
   s   6
  0.417351146E+04  0.183477216E-02
  0.627457911E+03  0.139946270E-01
  0.142902093E+03  0.685865518E-01
  0.402343293E+02  0.232240873E+00
  0.128202129E+02  0.469069948E+00
  0.439043701E+01  0.360455199E+00
   s   3
  0.116263619E+02 -0.114961182E+00
  0.271627981E+01 -0.169117479E+00
  0.772218397E+00  0.114585195E+01
   s   1
  0.212031497E+00  0.100000000E+01
   p   3
  0.116263619E+02  0.675797439E-01
  0.271627981E+01  0.323907296E+00
  0.772218397E+00  0.740895140E+00
   p   1
  0.212031497E+00  0.100000000E+01
   d   1
  0.800000000E+00  0.100000000E+01
 
   4
   s   6
  0.304752488E+04  0.183473713E-02
  0.457369518E+03  0.140373228E-01
  0.103948685E+03  0.688426223E-01
  0.292101553E+02  0.232184443E+00
  0.928666296E+01  0.467941348E+00
  0.316392696E+01  0.362311985E+00
   s   3
  0.786827235E+01 -0.119332420E+00
  0.188128854E+01 -0.160854152E+00
  0.544249258E+00  0.114345644E+01
   s   1
  0.168714478E+00  0.100000000E+01
   p   3
  0.786827235E+01  0.689990666E-01
  0.188128854E+01  0.316423961E+00
  0.544249258E+00  0.744308291E+00
   p   1
  0.168714478E+00  0.100000000E+01
   d   1
  0.800000000E+00  0.100000000E+01
 
   5
   s   6
  0.304752488E+04  0.183473713E-02
  0.457369518E+03  0.140373228E-01
  0.103948685E+03  0.688426223E-01
  0.292101553E+02  0.232184443E+00
  0.928666296E+01  0.467941348E+00
  0.316392696E+01  0.362311985E+00
   s   3
  0.786827235E+01 -0.119332420E+00
  0.188128854E+01 -0.160854152E+00
  0.544249258E+00  0.114345644E+01
   s   1
  0.168714478E+00  0.100000000E+01
   p   3
  0.786827235E+01  0.689990666E-01
  0.188128854E+01  0.316423961E+00
  0.544249258E+00  0.744308291E+00
   p   1
  0.168714478E+00  0.100000000E+01
   d   1
  0.800000000E+00  0.100000000E+01
 
   6
   s   6
  0.304752488E+04  0.183473713E-02
  0.457369518E+03  0.140373228E-01
  0.103948685E+03  0.688426223E-01
  0.292101553E+02  0.232184443E+00
  0.928666296E+01  0.467941348E+00
  0.316392696E+01  0.362311985E+00
   s   3
  0.786827235E+01 -0.119332420E+00
  0.188128854E+01 -0.160854152E+00
  0.544249258E+00  0.114345644E+01
   s   1
  0.168714478E+00  0.100000000E+01
   p   3
  0.786827235E+01  0.689990666E-01
  0.188128854E+01  0.316423961E+00
  0.544249258E+00  0.744308291E+00
   p   1
  0.168714478E+00  0.100000000E+01
   d   1
  0.800000000E+00  0.100000000E+01
 
   7
   s   6
  0.548467166E+04  0.183107443E-02
  0.825234946E+03  0.139501722E-01
  0.188046958E+03  0.684450781E-01
  0.529645000E+02  0.232714336E+00
  0.168975704E+02  0.470192898E+00
  0.579963534E+01  0.358520853E+00
   s   3
  0.155396162E+02 -0.110777550E+00
  0.359993359E+01 -0.148026263E+00
  0.101376175E+01  0.113076702E+01
   s   1
  0.270005823E+00  0.100000000E+01
   p   3
  0.155396162E+02  0.708742682E-01
  0.359993359E+01  0.339752839E+00
  0.101376175E+01  0.727158577E+00
   p   1
  0.270005823E+00  0.100000000E+01
   d   1
  0.800000000E+00  0.100000000E+01
 
   8
   s   6
  0.548467166E+04  0.183107443E-02
  0.825234946E+03  0.139501722E-01
  0.188046958E+03  0.684450781E-01
  0.529645000E+02  0.232714336E+00
  0.168975704E+02  0.470192898E+00
  0.579963534E+01  0.358520853E+00
   s   3
  0.155396162E+02 -0.110777550E+00
  0.359993359E+01 -0.148026263E+00
  0.101376175E+01  0.113076702E+01
   s   1
  0.270005823E+00  0.100000000E+01
   p   3
  0.155396162E+02  0.708742682E-01
  0.359993359E+01  0.339752839E+00
  0.101376175E+01  0.727158577E+00
   p   1
  0.270005823E+00  0.100000000E+01
   d   1
  0.800000000E+00  0.100000000E+01
 
   9
   s   3
  0.187311370E+02  0.334946043E-01
  0.282539437E+01  0.234726954E+00
  0.640121692E+00  0.813757326E+00
   s   1
  0.161277759E+00  0.100000000E+01
   p   1
  0.110000000E+01  0.100000000E+01
 
  10
   s   3
  0.187311370E+02  0.334946043E-01
  0.282539437E+01  0.234726954E+00
  0.640121692E+00  0.813757326E+00
   s   1
  0.161277759E+00  0.100000000E+01
   p   1
  0.110000000E+01  0.100000000E+01
 
  11
   s   6
  0.304752488E+04  0.183473713E-02
  0.457369518E+03  0.140373228E-01
  0.103948685E+03  0.688426223E-01
  0.292101553E+02  0.232184443E+00
  0.928666296E+01  0.467941348E+00
  0.316392696E+01  0.362311985E+00
   s   3
  0.786827235E+01 -0.119332420E+00
  0.188128854E+01 -0.160854152E+00
  0.544249258E+00  0.114345644E+01
   s   1
  0.168714478E+00  0.100000000E+01
   p   3
  0.786827235E+01  0.689990666E-01
  0.188128854E+01  0.316423961E+00
  0.544249258E+00  0.744308291E+00
   p   1
  0.168714478E+00  0.100000000E+01
   d   1
  0.800000000E+00  0.100000000E+01
 
  12
   s   3
  0.187311370E+02  0.334946043E-01
  0.282539437E+01  0.234726954E+00
  0.640121692E+00  0.813757326E+00
   s   1
  0.161277759E+00  0.100000000E+01
   p   1
  0.110000000E+01  0.100000000E+01
 
  13
   s   3
  0.187311370E+02  0.334946043E-01
  0.282539437E+01  0.234726954E+00
  0.640121692E+00  0.813757326E+00
   s   1
  0.161277759E+00  0.100000000E+01
   p   1
  0.110000000E+01  0.100000000E+01
 
  14
   s   3
  0.187311370E+02  0.334946043E-01
  0.282539437E+01  0.234726954E+00
  0.640121692E+00  0.813757326E+00
   s   1
  0.161277759E+00  0.100000000E+01
   p   1
  0.110000000E+01  0.100000000E+01
 
  15
   s   3
  0.187311370E+02  0.334946043E-01
  0.282539437E+01  0.234726954E+00
  0.640121692E+00  0.813757326E+00
   s   1
  0.161277759E+00  0.100000000E+01
   p   1
  0.110000000E+01  0.100000000E+01
 
[MO]
Sym=     1a  
Ene=   -20.5480
Spin= Alpha
Occup=    2.00000
   1        -0.00001187
   2        -0.00004913
   3         0.00029542
   4        -0.00002805
   5        -0.00001508
   6        -0.00000000
   7         0.00006572
   8         0.00013473
   9         0.00000000
  10        -0.00010213
  11         0.00008727
  12        -0.00005704
  13         0.00006209
  14        -0.00000000
  15        -0.00000001
  16        -0.00000602
  17         0.00053319
  18        -0.00071217
  19        -0.00003111
  20         0.00001351
  21        -0.00000001
  22        -0.00038307
  23         0.00018441
  24        -0.00000003
  25        -0.00070778
  26        -0.00021380
  27        -0.00004255
  28         0.00039837
  29        -0.00000004
  30         0.00000002
  31        -0.00001076
  32        -0.00004253
  33         0.00028465
  34        -0.00000484
  35         0.00003019
  36        -0.00000000
  37        -0.00005716
  38        -0.00017279
  39         0.00000001
  40        -0.00003415
  41         0.00002116
  42        -0.00005258
  43         0.00012716
  44         0.00000000
  45         0.00000001
  46         0.00001180
  47         0.00004875
  48        -0.00022390
  49         0.00002474
  50        -0.00001442
  51        -0.00000000
  52         0.00010849
  53         0.00045386
  54         0.00000000
  55         0.00004657
  56         0.00000353
  57         0.00002192
  58        -0.00001558
  59        -0.00000000
  60        -0.00000000
  61        -0.00000380
  62        -0.00002667
  63         0.00058819
  64         0.00001062
  65         0.00000034
  66        -0.00000000
  67         0.00027253
  68        -0.00015075
  69         0.00000002
  70         0.00001133
  71        -0.00000721
  72        -0.00000170
  73        -0.00001249
  74         0.00000000
  75        -0.00000000
  76         0.00000686
  77         0.00004225
  78        -0.00039955
  79         0.00002640
  80        -0.00000841
  81        -0.00000000
  82        -0.00021156
  83        -0.00026175
  84         0.00000001
  85        -0.00000052
  86         0.00001187
  87         0.00001579
  88        -0.00003831
  89         0.00000000
  90         0.00000000
  91         0.99469201
  92         0.02100186
  93         0.00449975
  94        -0.00145988
  95         0.00073985
  96        -0.00000011
  97         0.00002375
  98        -0.00000943
  99         0.00000001
 100        -0.00366151
 101        -0.00385518
 102        -0.00407638
 103        -0.00015155
 104         0.00000001
 105        -0.00000001
 106        -0.00001418
 107         0.00005893
 108        -0.00038125
 109         0.00000093
 110        -0.00000602
 111         0.00000000
 112        -0.00001645
 113         0.00008736
 114        -0.00000002
 115         0.00003764
 116         0.00003188
 117         0.00003641
 118         0.00000142
 119        -0.00000000
 120         0.00000000
 121        -0.00002692
 122        -0.00001627
 123         0.00001513
 124        -0.00003949
 125        -0.00000000
 126        -0.00002245
 127        -0.00002123
 128         0.00004249
 129         0.00001024
 130        -0.00000000
 131         0.00000102
 132         0.00000588
 133         0.00005784
 134         0.00000047
 135         0.00000046
 136         0.00000000
 137         0.00001039
 138        -0.00000754
 139        -0.00000001
 140        -0.00000275
 141         0.00000179
 142         0.00000199
 143         0.00000372
 144        -0.00000000
 145        -0.00000000
 146        -0.00000504
 147        -0.00010207
 148         0.00000431
 149         0.00000959
 150        -0.00000000
 151        -0.00000185
 152         0.00000370
 153         0.00000094
 154        -0.00000156
 155         0.00000000
 156         0.00000145
 157        -0.00000443
 158         0.00000068
 159        -0.00000003
 160         0.00000107
 161         0.00000145
 162        -0.00000444
 163         0.00000068
 164        -0.00000003
 165        -0.00000107
Sym=     2a  
Ene=   -20.5470
Spin= Alpha
Occup=    2.00000
   1        -0.00000106
   2        -0.00000320
   3         0.00015603
   4         0.00000198
   5         0.00000551
   6         0.00000000
   7         0.00006168
   8         0.00002967
   9        -0.00000001
  10        -0.00001917
  11         0.00000677
  12         0.00000484
  13         0.00000405
  14         0.00000000
  15        -0.00000000
  16         0.00000937
  17         0.00003641
  18         0.00001324
  19        -0.00000233
  20         0.00003039
  21         0.00000000
  22         0.00031460
  23        -0.00000547
  24        -0.00000000
  25         0.00000258
  26         0.00004952
  27         0.00001704
  28         0.00000990
  29         0.00000000
  30         0.00000000
  31        -0.00001083
  32        -0.00003862
  33         0.00021251
  34         0.00003733
  35        -0.00002928
  36         0.00000000
  37        -0.00015699
  38         0.00016156
  39         0.00000001
  40         0.00006242
  41        -0.00009914
  42        -0.00005464
  43         0.00005676
  44        -0.00000001
  45        -0.00000000
  46        -0.00000708
  47         0.00050628
  48        -0.00048319
  49         0.00000956
  50        -0.00001820
  51         0.00000001
  52        -0.00023388
  53        -0.00059336
  54         0.00000004
  55        -0.00005271
  56        -0.00080483
  57        -0.00005041
  58        -0.00000148
  59         0.00000000
  60         0.00000005
  61        -0.00000111
  62        -0.00000426
  63        -0.00014584
  64        -0.00000013
  65        -0.00002217
  66         0.00000000
  67        -0.00012891
  68         0.00005807
  69        -0.00000002
  70         0.00007016
  71        -0.00007415
  72        -0.00001866
  73        -0.00003433
  74         0.00000001
  75         0.00000000
  76         0.00000148
  77         0.00001983
  78         0.00003917
  79        -0.00000451
  80         0.00001915
  81         0.00000000
  82         0.00000445
  83        -0.00000279
  84         0.00000000
  85        -0.00000749
  86         0.00001075
  87         0.00000201
  88        -0.00003525
  89        -0.00000000
  90        -0.00000000
  91         0.00003825
  92         0.00005160
  93        -0.00031251
  94        -0.00000467
  95         0.00000300
  96        -0.00000000
  97         0.00006222
  98        -0.00005470
  99         0.00000001
 100         0.00002678
 101         0.00002997
 102         0.00003198
 103         0.00000433
 104        -0.00000000
 105         0.00000000
 106         0.99469309
 107         0.02095005
 108         0.00458314
 109         0.00001051
 110        -0.00156611
 111         0.00000013
 112         0.00002103
 113         0.00002549
 114        -0.00000001
 115        -0.00390962
 116        -0.00363326
 117        -0.00411589
 118         0.00000386
 119        -0.00000001
 120        -0.00000002
 121        -0.00000812
 122        -0.00000373
 123        -0.00000219
 124        -0.00000398
 125         0.00000000
 126        -0.00002745
 127        -0.00003563
 128         0.00002782
 129         0.00002158
 130         0.00000000
 131         0.00000305
 132         0.00001684
 133        -0.00004981
 134         0.00000487
 135         0.00002174
 136        -0.00000000
 137        -0.00013055
 138        -0.00005210
 139         0.00000001
 140        -0.00000296
 141        -0.00000197
 142         0.00000610
 143         0.00001976
 144         0.00000000
 145        -0.00000000
 146         0.00000795
 147         0.00000146
 148         0.00000880
 149         0.00000561
 150        -0.00000000
 151        -0.00001455
 152        -0.00007649
 153        -0.00000475
 154        -0.00000782
 155        -0.00000000
 156         0.00002312
 157        -0.00001978
 158         0.00000763
 159         0.00000804
 160         0.00000053
 161         0.00002312
 162        -0.00001978
 163         0.00000763
 164         0.00000804
 165        -0.00000053
Sym=     3a  
Ene=   -15.6430
Spin= Alpha
Occup=    2.00000
   1         0.99497887
   2         0.02550837
   3        -0.00472622
   4        -0.00004446
   5         0.00017686
   6        -0.00000009
   7        -0.00004282
   8        -0.00160206
   9         0.00000008
  10        -0.00341360
  11        -0.00331212
  12        -0.00329862
  13        -0.00001740
  14         0.00000002
  15         0.00000001
  16         0.00001216
  17         0.00019060
  18         0.00169510
  19        -0.00023874
  20        -0.00011205
  21         0.00000001
  22        -0.00207577
  23        -0.00026096
  24         0.00000003
  25        -0.00008357
  26        -0.00009991
  27        -0.00006862
  28        -0.00005445
  29        -0.00000000
  30        -0.00000000
  31        -0.00073814
  32         0.00001156
  33        -0.00090537
  34        -0.00002275
  35         0.00004860
  36         0.00000000
  37         0.00079418
  38         0.00009259
  39        -0.00000001
  40         0.00006468
  41         0.00004796
  42        -0.00000349
  43        -0.00001321
  44        -0.00000000
  45         0.00000000
  46        -0.00000591
  47        -0.00004369
  48         0.00142253
  49         0.00001839
  50        -0.00002455
  51        -0.00000000
  52        -0.00021092
  53        -0.00095492
  54        -0.00000007
  55         0.00001639
  56         0.00001210
  57        -0.00001276
  58         0.00000873
  59        -0.00000000
  60         0.00000000
  61         0.00002600
  62         0.00013272
  63        -0.00205193
  64         0.00002695
  65         0.00003280
  66        -0.00000000
  67        -0.00155181
  68         0.00056413
  69        -0.00000001
  70         0.00000924
  71        -0.00000368
  72         0.00002624
  73         0.00003690
  74        -0.00000001
  75        -0.00000000
  76         0.00001095
  77         0.00016304
  78         0.00274898
  79         0.00018090
  80        -0.00010459
  81        -0.00000000
  82         0.00176592
  83         0.00061906
  84        -0.00000005
  85        -0.00009430
  86        -0.00005978
  87        -0.00008842
  88         0.00008224
  89        -0.00000000
  90        -0.00000000
  91        -0.00002965
  92        -0.00016723
  93         0.00105354
  94         0.00002207
  95        -0.00002314
  96         0.00000001
  97        -0.00002207
  98         0.00037238
  99        -0.00000005
 100        -0.00015275
 101        -0.00003748
 102        -0.00012171
 103        -0.00004019
 104         0.00000000
 105        -0.00000001
 106        -0.00001510
 107        -0.00006419
 108         0.00043551
 109        -0.00000912
 110         0.00000764
 111        -0.00000001
 112         0.00005805
 113        -0.00006089
 114         0.00000004
 115        -0.00003710
 116        -0.00004760
 117        -0.00004433
 118        -0.00001176
 119         0.00000000
 120        -0.00000001
 121         0.00012914
 122        -0.00002079
 123        -0.00000041
 124        -0.00012174
 125        -0.00000001
 126        -0.00009390
 127         0.00000215
 128        -0.00000247
 129         0.00000387
 130         0.00000000
 131        -0.00000646
 132        -0.00000840
 133        -0.00050740
 134        -0.00002292
 135         0.00002251
 136        -0.00000000
 137        -0.00010326
 138         0.00006573
 139         0.00000001
 140        -0.00000520
 141        -0.00002410
 142        -0.00002653
 143        -0.00000232
 144        -0.00000000
 145         0.00000000
 146         0.00000632
 147         0.00042081
 148        -0.00005860
 149         0.00002568
 150         0.00000000
 151        -0.00000537
 152         0.00006389
 153         0.00000487
 154         0.00000616
 155        -0.00000000
 156         0.00000941
 157         0.00001282
 158        -0.00000680
 159         0.00000094
 160        -0.00000908
 161         0.00000941
 162         0.00001283
 163        -0.00000680
 164         0.00000094
 165         0.00000908
Sym=     4a  
Ene=   -15.6290
Spin= Alpha
Occup=    2.00000
   1         0.00077651
   2         0.00004037
   3        -0.00081485
   4        -0.00005489
   5        -0.00001366
   6         0.00000001
   7         0.00041118
   8        -0.00066569
   9        -0.00000003
  10         0.00005712
  11         0.00003935
  12        -0.00001398
  13        -0.00001485
  14        -0.00000001
  15         0.00000001
  16         0.00000849
  17         0.00020299
  18         0.00166627
  19        -0.00005258
  20         0.00023928
  21         0.00000001
  22        -0.00103453
  23         0.00186180
  24         0.00000007
  25        -0.00005207
  26        -0.00019229
  27        -0.00007333
  28        -0.00002021
  29         0.00000000
  30         0.00000000
  31         0.99499512
  32         0.02553328
  33        -0.00526203
  34        -0.00007962
  35        -0.00020265
  36         0.00000005
  37         0.00133228
  38         0.00085700
  39        -0.00000007
  40        -0.00333580
  41        -0.00333963
  42        -0.00327770
  43         0.00005739
  44         0.00000002
  45        -0.00000002
  46        -0.00000624
  47         0.00009741
  48         0.00203556
  49         0.00018287
  50        -0.00013259
  51        -0.00000001
  52         0.00124824
  53        -0.00230075
  54        -0.00000009
  55        -0.00011577
  56        -0.00006399
  57        -0.00009674
  58         0.00001161
  59        -0.00000000
  60         0.00000001
  61         0.00001710
  62         0.00007907
  63        -0.00159888
  64        -0.00001550
  65        -0.00005205
  66        -0.00000000
  67        -0.00112640
  68         0.00122194
  69        -0.00000001
  70        -0.00002664
  71         0.00002069
  72         0.00001133
  73         0.00001400
  74        -0.00000001
  75         0.00000001
  76         0.00000297
  77        -0.00001103
  78         0.00173362
  79         0.00002314
  80         0.00000846
  81         0.00000000
  82         0.00041063
  83         0.00060182
  84        -0.00000002
  85         0.00001454
  86         0.00004079
  87        -0.00000060
  88        -0.00000110
  89        -0.00000000
  90        -0.00000000
  91        -0.00003177
  92        -0.00017653
  93         0.00110910
  94         0.00003150
  95        -0.00000575
  96         0.00000001
  97        -0.00033517
  98        -0.00019775
  99        -0.00000006
 100        -0.00004065
 101        -0.00015669
 102        -0.00012976
 103         0.00005235
 104         0.00000002
 105         0.00000000
 106        -0.00003965
 107        -0.00021550
 108         0.00141346
 109         0.00000191
 110         0.00003006
 111        -0.00000001
 112        -0.00030410
 113        -0.00027027
 114         0.00000009
 115        -0.00012053
 116        -0.00011951
 117        -0.00014410
 118         0.00007109
 119        -0.00000001
 120        -0.00000002
 121        -0.00009289
 122        -0.00000718
 123        -0.00000182
 124        -0.00000168
 125        -0.00000000
 126         0.00015748
 127         0.00002266
 128         0.00009432
 129         0.00006538
 130         0.00000001
 131        -0.00001396
 132        -0.00004286
 133        -0.00041745
 134        -0.00005181
 135        -0.00000624
 136        -0.00000000
 137        -0.00002203
 138         0.00015679
 139         0.00000000
 140        -0.00002952
 141        -0.00002179
 142        -0.00003422
 143        -0.00000880
 144         0.00000000
 145         0.00000000
 146        -0.00001056
 147         0.00010714
 148        -0.00000240
 149        -0.00001528
 150         0.00000000
 151         0.00002434
 152         0.00008466
 153         0.00000528
 154         0.00001135
 155        -0.00000000
 156        -0.00001617
 157        -0.00000316
 158        -0.00001188
 159        -0.00000353
 160        -0.00000494
 161        -0.00001615
 162        -0.00000319
 163        -0.00001188
 164        -0.00000353
 165         0.00000494
Sym=     5a  
Ene=   -11.4190
Spin= Alpha
Occup=    2.00000
   1        -0.00023830
   2         0.00037163
   3        -0.00022077
   4         0.00008010
   5         0.00008761
   6         0.00000002
   7        -0.00101246
   8        -0.00084497
   9        -0.00000004
  10        -0.00060979
  11        -0.00039471
  12         0.00012968
  13        -0.00021825
  14         0.00000004
  15         0.00000000
  16         0.99587020
  17         0.02583059
  18        -0.00231379
  19        -0.00064770
  20         0.00033008
  21         0.00000005
  22         0.00363856
  23        -0.00174710
  24         0.00000011
  25        -0.00052767
  26        -0.00091395
  27        -0.00229624
  28        -0.00031987
  29         0.00000003
  30        -0.00000001
  31        -0.00025132
  32         0.00030184
  33         0.00010836
  34        -0.00001929
  35        -0.00013306
  36         0.00000001
  37        -0.00023624
  38         0.00169305
  39        -0.00000007
  40        -0.00027069
  41        -0.00073452
  42         0.00008645
  43         0.00001115
  44         0.00000003
  45        -0.00000003
  46        -0.00045411
  47        -0.00061948
  48         0.00186351
  49        -0.00007800
  50         0.00010393
  51         0.00000001
  52        -0.00159787
  53        -0.00492383
  54         0.00000003
  55        -0.00005184
  56        -0.00009362
  57        -0.00022324
  58        -0.00002543
  59         0.00000000
  60         0.00000004
  61         0.00002067
  62         0.00037150
  63        -0.00689121
  64        -0.00004640
  65         0.00002450
  66         0.00000003
  67        -0.00363492
  68         0.00209180
  69        -0.00000027
  70        -0.00009768
  71        -0.00005850
  72         0.00006731
  73         0.00005265
  74        -0.00000002
  75        -0.00000000
  76        -0.00020449
  77        -0.00055320
  78         0.00405477
  79        -0.00016462
  80        -0.00003477
  81         0.00000002
  82         0.00252376
  83         0.00356069
  84        -0.00000004
  85         0.00013790
  86         0.00004919
  87        -0.00020090
  88        -0.00000704
  89        -0.00000002
  90        -0.00000000
  91        -0.00018785
  92         0.00093318
  93        -0.00524313
  94        -0.00029278
  95         0.00015140
  96        -0.00000002
  97         0.00200765
  98        -0.00103431
  99         0.00000020
 100         0.00029036
 101         0.00039146
 102         0.00056039
 103         0.00007040
 104        -0.00000005
 105         0.00000002
 106        -0.00012701
 107        -0.00056536
 108         0.00405942
 109        -0.00000523
 110         0.00000294
 111        -0.00000003
 112         0.00023712
 113        -0.00088584
 114         0.00000018
 115        -0.00038696
 116        -0.00029861
 117        -0.00030726
 118        -0.00003438
 119         0.00000001
 120        -0.00000002
 121         0.00003579
 122        -0.00000414
 123         0.00010894
 124         0.00019542
 125         0.00000000
 126         0.00000376
 127         0.00012957
 128        -0.00010581
 129        -0.00020452
 130         0.00000000
 131        -0.00000601
 132        -0.00002244
 133        -0.00113916
 134        -0.00003064
 135         0.00000834
 136        -0.00000002
 137        -0.00034543
 138         0.00013700
 139         0.00000015
 140         0.00001388
 141        -0.00001354
 142        -0.00001840
 143        -0.00002200
 144         0.00000001
 145         0.00000000
 146         0.00022044
 147         0.00150642
 148         0.00002683
 149        -0.00004157
 150         0.00000000
 151         0.00003150
 152        -0.00009316
 153        -0.00001458
 154         0.00001360
 155        -0.00000001
 156        -0.00000307
 157         0.00007282
 158        -0.00000687
 159        -0.00000002
 160        -0.00001327
 161        -0.00000305
 162         0.00007293
 163        -0.00000688
 164        -0.00000003
 165         0.00001327
Sym=     6a  
Ene=   -11.3800
Spin= Alpha
Occup=    2.00000
   1         0.00003704
   2         0.00016366
   3        -0.00205164
   4         0.00004511
   5        -0.00001798
   6        -0.00000002
   7        -0.00138888
   8        -0.00076113
   9         0.00000014
  10         0.00007483
  11        -0.00000748
  12         0.00005721
  13        -0.00003368
  14         0.00000000
  15         0.00000001
  16         0.00023297
  17        -0.00049354
  18        -0.00090785
  19         0.00002774
  20        -0.00019439
  21        -0.00000003
  22        -0.00409588
  23        -0.00097976
  24         0.00000004
  25        -0.00012975
  26        -0.00005779
  27        -0.00020873
  28         0.00003100
  29        -0.00000003
  30         0.00000000
  31        -0.00025894
  32         0.00026291
  33         0.00126466
  34        -0.00015663
  35         0.00016864
  36         0.00000001
  37         0.00162407
  38        -0.00315780
  39        -0.00000013
  40        -0.00073720
  41        -0.00044026
  42         0.00005764
  43         0.00033830
  44         0.00000004
  45        -0.00000006
  46         0.99591763
  47         0.02648980
  48        -0.00726921
  49         0.00076952
  50        -0.00020000
  51        -0.00000006
  52         0.00421807
  53         0.00693153
  54        -0.00000004
  55        -0.00112877
  56        -0.00047172
  57        -0.00217682
  58        -0.00012508
  59        -0.00000006
  60        -0.00000006
  61         0.00314678
  62         0.00002395
  63         0.00575506
  64        -0.00016056
  65         0.00001476
  66        -0.00000004
  67         0.00473695
  68         0.00087000
  69         0.00000032
  70        -0.00043451