[Molden Format]
[N_Atoms]
                   15
[Atoms] (AU)
N1          1      7           0.29271638     -3.14456875     -0.00000042
C2          2      6           2.57447240     -1.86182603     -0.00009873
N3          3      7           2.24848863      0.73728505     -0.00001529
C4          4      6          -0.01147676      2.12094743      0.00012988
C5          5      6          -2.29681176      0.56637035      0.00002409
C6          6      6          -2.03968758     -1.97929157      0.00004376
O7          7      8           4.63470169     -2.91477297      0.00001588
O8          8      8           0.01648922      4.44470173     -0.00001514
H9          9      1           0.43997826     -5.04315817     -0.00005564
H10        10      1           3.86200112      1.76372138      0.00000689
C11        11      6          -4.78904357      1.89908204     -0.00000199
H12        12      1          -3.64630548     -3.24317312      0.00005613
H13        13      1          -6.34434758      0.55231748     -0.00001536
H14        14      1          -4.95793053      3.11020793      1.65559260
H15        15      1          -4.95787645      3.11012907     -1.65566662
[Charge] (Mulliken)
 -0.78749278091142028     
   1.0298297190812127     
 -0.83852605855821949     
  0.83732195616849747     
 -0.21433843010590614     
  0.20817011590352497     
 -0.61777815960761728     
 -0.60799053427520633     
  0.34638797323544257     
  0.35302809873960372     
 -0.31347667871393092     
  0.19544679554046807     
  0.11171897247580287     
  0.14884917073540016     
  0.14884984028888992     
[GTO] (AU)
   1
   s   6
  0.417351146E+04  0.183477216E-02
  0.627457911E+03  0.139946270E-01
  0.142902093E+03  0.685865518E-01
  0.402343293E+02  0.232240873E+00
  0.128202129E+02  0.469069948E+00
  0.439043701E+01  0.360455199E+00
   s   3
  0.116263619E+02 -0.114961182E+00
  0.271627981E+01 -0.169117479E+00
  0.772218397E+00  0.114585195E+01
   s   1
  0.212031497E+00  0.100000000E+01
   p   3
  0.116263619E+02  0.675797439E-01
  0.271627981E+01  0.323907296E+00
  0.772218397E+00  0.740895140E+00
   p   1
  0.212031497E+00  0.100000000E+01
   d   1
  0.800000000E+00  0.100000000E+01
 
   2
   s   6
  0.304752488E+04  0.183473713E-02
  0.457369518E+03  0.140373228E-01
  0.103948685E+03  0.688426223E-01
  0.292101553E+02  0.232184443E+00
  0.928666296E+01  0.467941348E+00
  0.316392696E+01  0.362311985E+00
   s   3
  0.786827235E+01 -0.119332420E+00
  0.188128854E+01 -0.160854152E+00
  0.544249258E+00  0.114345644E+01
   s   1
  0.168714478E+00  0.100000000E+01
   p   3
  0.786827235E+01  0.689990666E-01
  0.188128854E+01  0.316423961E+00
  0.544249258E+00  0.744308291E+00
   p   1
  0.168714478E+00  0.100000000E+01
   d   1
  0.800000000E+00  0.100000000E+01
 
   3
   s   6
  0.417351146E+04  0.183477216E-02
  0.627457911E+03  0.139946270E-01
  0.142902093E+03  0.685865518E-01
  0.402343293E+02  0.232240873E+00
  0.128202129E+02  0.469069948E+00
  0.439043701E+01  0.360455199E+00
   s   3
  0.116263619E+02 -0.114961182E+00
  0.271627981E+01 -0.169117479E+00
  0.772218397E+00  0.114585195E+01
   s   1
  0.212031497E+00  0.100000000E+01
   p   3
  0.116263619E+02  0.675797439E-01
  0.271627981E+01  0.323907296E+00
  0.772218397E+00  0.740895140E+00
   p   1
  0.212031497E+00  0.100000000E+01
   d   1
  0.800000000E+00  0.100000000E+01
 
   4
   s   6
  0.304752488E+04  0.183473713E-02
  0.457369518E+03  0.140373228E-01
  0.103948685E+03  0.688426223E-01
  0.292101553E+02  0.232184443E+00
  0.928666296E+01  0.467941348E+00
  0.316392696E+01  0.362311985E+00
   s   3
  0.786827235E+01 -0.119332420E+00
  0.188128854E+01 -0.160854152E+00
  0.544249258E+00  0.114345644E+01
   s   1
  0.168714478E+00  0.100000000E+01
   p   3
  0.786827235E+01  0.689990666E-01
  0.188128854E+01  0.316423961E+00
  0.544249258E+00  0.744308291E+00
   p   1
  0.168714478E+00  0.100000000E+01
   d   1
  0.800000000E+00  0.100000000E+01
 
   5
   s   6
  0.304752488E+04  0.183473713E-02
  0.457369518E+03  0.140373228E-01
  0.103948685E+03  0.688426223E-01
  0.292101553E+02  0.232184443E+00
  0.928666296E+01  0.467941348E+00
  0.316392696E+01  0.362311985E+00
   s   3
  0.786827235E+01 -0.119332420E+00
  0.188128854E+01 -0.160854152E+00
  0.544249258E+00  0.114345644E+01
   s   1
  0.168714478E+00  0.100000000E+01
   p   3
  0.786827235E+01  0.689990666E-01
  0.188128854E+01  0.316423961E+00
  0.544249258E+00  0.744308291E+00
   p   1
  0.168714478E+00  0.100000000E+01
   d   1
  0.800000000E+00  0.100000000E+01
 
   6
   s   6
  0.304752488E+04  0.183473713E-02
  0.457369518E+03  0.140373228E-01
  0.103948685E+03  0.688426223E-01
  0.292101553E+02  0.232184443E+00
  0.928666296E+01  0.467941348E+00
  0.316392696E+01  0.362311985E+00
   s   3
  0.786827235E+01 -0.119332420E+00
  0.188128854E+01 -0.160854152E+00
  0.544249258E+00  0.114345644E+01
   s   1
  0.168714478E+00  0.100000000E+01
   p   3
  0.786827235E+01  0.689990666E-01
  0.188128854E+01  0.316423961E+00
  0.544249258E+00  0.744308291E+00
   p   1
  0.168714478E+00  0.100000000E+01
   d   1
  0.800000000E+00  0.100000000E+01
 
   7
   s   6
  0.548467166E+04  0.183107443E-02
  0.825234946E+03  0.139501722E-01
  0.188046958E+03  0.684450781E-01
  0.529645000E+02  0.232714336E+00
  0.168975704E+02  0.470192898E+00
  0.579963534E+01  0.358520853E+00
   s   3
  0.155396162E+02 -0.110777550E+00
  0.359993359E+01 -0.148026263E+00
  0.101376175E+01  0.113076702E+01
   s   1
  0.270005823E+00  0.100000000E+01
   p   3
  0.155396162E+02  0.708742682E-01
  0.359993359E+01  0.339752839E+00
  0.101376175E+01  0.727158577E+00
   p   1
  0.270005823E+00  0.100000000E+01
   d   1
  0.800000000E+00  0.100000000E+01
 
   8
   s   6
  0.548467166E+04  0.183107443E-02
  0.825234946E+03  0.139501722E-01
  0.188046958E+03  0.684450781E-01
  0.529645000E+02  0.232714336E+00
  0.168975704E+02  0.470192898E+00
  0.579963534E+01  0.358520853E+00
   s   3
  0.155396162E+02 -0.110777550E+00
  0.359993359E+01 -0.148026263E+00
  0.101376175E+01  0.113076702E+01
   s   1
  0.270005823E+00  0.100000000E+01
   p   3
  0.155396162E+02  0.708742682E-01
  0.359993359E+01  0.339752839E+00
  0.101376175E+01  0.727158577E+00
   p   1
  0.270005823E+00  0.100000000E+01
   d   1
  0.800000000E+00  0.100000000E+01
 
   9
   s   3
  0.187311370E+02  0.334946043E-01
  0.282539437E+01  0.234726954E+00
  0.640121692E+00  0.813757326E+00
   s   1
  0.161277759E+00  0.100000000E+01
   p   1
  0.110000000E+01  0.100000000E+01
 
  10
   s   3
  0.187311370E+02  0.334946043E-01
  0.282539437E+01  0.234726954E+00
  0.640121692E+00  0.813757326E+00
   s   1
  0.161277759E+00  0.100000000E+01
   p   1
  0.110000000E+01  0.100000000E+01
 
  11
   s   6
  0.304752488E+04  0.183473713E-02
  0.457369518E+03  0.140373228E-01
  0.103948685E+03  0.688426223E-01
  0.292101553E+02  0.232184443E+00
  0.928666296E+01  0.467941348E+00
  0.316392696E+01  0.362311985E+00
   s   3
  0.786827235E+01 -0.119332420E+00
  0.188128854E+01 -0.160854152E+00
  0.544249258E+00  0.114345644E+01
   s   1
  0.168714478E+00  0.100000000E+01
   p   3
  0.786827235E+01  0.689990666E-01
  0.188128854E+01  0.316423961E+00
  0.544249258E+00  0.744308291E+00
   p   1
  0.168714478E+00  0.100000000E+01
   d   1
  0.800000000E+00  0.100000000E+01
 
  12
   s   3
  0.187311370E+02  0.334946043E-01
  0.282539437E+01  0.234726954E+00
  0.640121692E+00  0.813757326E+00
   s   1
  0.161277759E+00  0.100000000E+01
   p   1
  0.110000000E+01  0.100000000E+01
 
  13
   s   3
  0.187311370E+02  0.334946043E-01
  0.282539437E+01  0.234726954E+00
  0.640121692E+00  0.813757326E+00
   s   1
  0.161277759E+00  0.100000000E+01
   p   1
  0.110000000E+01  0.100000000E+01
 
  14
   s   3
  0.187311370E+02  0.334946043E-01
  0.282539437E+01  0.234726954E+00
  0.640121692E+00  0.813757326E+00
   s   1
  0.161277759E+00  0.100000000E+01
   p   1
  0.110000000E+01  0.100000000E+01
 
  15
   s   3
  0.187311370E+02  0.334946043E-01
  0.282539437E+01  0.234726954E+00
  0.640121692E+00  0.813757326E+00
   s   1
  0.161277759E+00  0.100000000E+01
   p   1
  0.110000000E+01  0.100000000E+01
 
[MO]
Sym=     1a  
Ene=     0.0000
Spin= Alpha
Occup=    2.00000
   1        -0.05059431
   2        -0.00131414
   3         0.00211667
   4         0.00042028
   5        -0.00057310
   6         0.00000026
   7         0.00247264
   8        -0.00033236
   9         0.00000006
  10        -0.00038148
  11        -0.00005090
  12         0.00020390
  13         0.00018122
  14         0.00000002
  15        -0.00000001
  16         0.09298007
  17         0.00233493
  18         0.00052003
  19        -0.00008000
  20        -0.00006779
  21         0.00000001
  22         0.00307939
  23         0.00245232
  24        -0.00000006
  25         0.00013228
  26        -0.00007004
  27        -0.00010347
  28        -0.00003982
  29         0.00000001
  30        -0.00000002
  31         0.06591558
  32         0.00168955
  33        -0.00276279
  34        -0.00087145
  35         0.00039832
  36        -0.00000030
  37        -0.00165947
  38         0.00380429
  39        -0.00000007
  40         0.00044326
  41        -0.00002207
  42        -0.00025608
  43        -0.00030871
  44        -0.00000004
  45         0.00000005
  46        -0.77692740
  47        -0.01805871
  48         0.00719622
  49        -0.00175507
  50        -0.00068242
  51        -0.00000024
  52        -0.00407043
  53        -0.00705032
  54        -0.00000007
  55         0.00135577
  56         0.00048488
  57         0.00173814
  58         0.00029631
  59         0.00000004
  60         0.00000011
  61        -0.26375077
  62        -0.00620887
  63         0.00162619
  64         0.00156924
  65         0.00225685
  66        -0.00000007
  67        -0.00441208
  68        -0.00110560
  69        -0.00000038
  70         0.00083120
  71         0.00046359
  72         0.00069422
  73         0.00023165
  74        -0.00000001
  75         0.00000004
  76         0.45446687
  77         0.01109008
  78        -0.00618491
  79         0.00104226
  80         0.00009609
  81         0.00000004
  82         0.00179291
  83        -0.00177647
  84         0.00000001
  85        -0.00068509
  86        -0.00060932
  87        -0.00104676
  88        -0.00009758
  89        -0.00000002
  90         0.00000002
  91        -0.03381669
  92        -0.00025251
  93        -0.00207413
  94         0.00037903
  95         0.00011427
  96        -0.00000003
  97         0.00057832
  98        -0.00070069
  99         0.00000009
 100         0.00027823
 101         0.00027785
 102         0.00034395
 103         0.00011774
 104        -0.00000001
 105         0.00000002
 106         0.31050984
 107         0.00417462
 108         0.00564810
 109         0.00016285
 110        -0.00252889
 111        -0.00000002
 112         0.00085147
 113        -0.00358058
 114         0.00000031
 115        -0.00187386
 116        -0.00125215
 117        -0.00199588
 118        -0.00009229
 119         0.00000001
 120        -0.00000006
 121         0.00028326
 122         0.00006234
 123        -0.00010067
 124         0.00011048
 125         0.00000002
 126        -0.00032143
 127        -0.00019917
 128         0.00019683
 129        -0.00003887
 130        -0.00000001
 131         0.04976820
 132         0.00148130
 133        -0.00340564
 134         0.00029619
 135        -0.00046382
 136        -0.00000011
 137        -0.00106166
 138         0.00050182
 139         0.00000008
 140         0.00013702
 141        -0.00006166
 142        -0.00007191
 143         0.00001224
 144        -0.00000000
 145        -0.00000000
 146        -0.00109730
 147         0.00041689
 148        -0.00020201
 149        -0.00007915
 150        -0.00000000
 151         0.00016684
 152         0.00037986
 153        -0.00004437
 154        -0.00001325
 155        -0.00000001
 156        -0.00017525
 157        -0.00030208
 158         0.00001947
 159         0.00001685
 160         0.00004292
 161        -0.00017514
 162        -0.00030191
 163         0.00001947
 164         0.00001683
 165        -0.00004292
Sym=     2a  
Ene=     0.0000
Spin= Alpha
Occup=    2.00000
   1         0.02967080
   2         0.00093746
   3        -0.00049682
   4         0.00144605
   5         0.00037712
   6         0.00000004
   7         0.00236742
   8        -0.00024504
   9         0.00000011
  10        -0.00000154
  11         0.00004784
  12        -0.00014509
  13         0.00041140
  14        -0.00000004
  15        -0.00000000
  16        -0.72079665
  17        -0.01649502
  18         0.00283401
  19         0.00073952
  20        -0.00039634
  21        -0.00000014
  22        -0.00499849
  23         0.00314473
  24        -0.00000019
  25         0.00035641
  26         0.00083328
  27         0.00162389
  28         0.00044583
  29        -0.00000008
  30         0.00000003
  31         0.07169824
  32         0.00199806
  33        -0.00187224
  34         0.00022944
  35        -0.00132863
  36         0.00000001
  37         0.00092458
  38        -0.00161038
  39         0.00000013
  40        -0.00018521
  41         0.00035835
  42        -0.00026523
  43         0.00007443
  44        -0.00000002
  45         0.00000000
  46         0.15109790
  47         0.00391556
  48        -0.00246387
  49        -0.00010737
  50        -0.00008462
  51         0.00000008
  52         0.00200056
  53         0.00446948
  54        -0.00000001
  55        -0.00009118
  56         0.00014701
  57        -0.00015711
  58         0.00007625
  59        -0.00000001
  60        -0.00000004
  61        -0.13848996
  62        -0.00448991
  63         0.00926471
  64        -0.00054388
  65         0.00089972
  66         0.00000006
  67         0.00288670
  68        -0.00242970
  69         0.00000033
  70         0.00023371
  71         0.00006244
  72         0.00028028
  73        -0.00011214
  74         0.00000001
  75         0.00000001
  76         0.42173752
  77         0.01051964
  78        -0.00873282
  79         0.00080688
  80         0.00018155
  81         0.00000013
  82        -0.00098697
  83        -0.00383903
  84         0.00000011
  85        -0.00070522
  86        -0.00065234
  87        -0.00086560
  88        -0.00009264
  89         0.00000001
  90         0.00000003
  91         0.47902004
  92         0.00795691
  93         0.00623131
  94        -0.00317027
  95         0.00163828
  96        -0.00000041
  97        -0.00357379
  98         0.00174532
  99        -0.00000048
 100        -0.00198212
 101        -0.00241379
 102        -0.00263428
 103        -0.00030640
 104         0.00000007
 105        -0.00000003
 106        -0.08089891
 107        -0.00091237
 108        -0.00374209
 109         0.00034598
 110         0.00060548
 111         0.00000003
 112        -0.00003876
 113         0.00134139
 114        -0.00000017
 115         0.00068614
 116         0.00044630
 117         0.00067793
 118         0.00004863
 119        -0.00000001
 120         0.00000003
 121        -0.00023093
 122        -0.00041806
 123        -0.00011094
 124        -0.00009454
 125        -0.00000000
 126        -0.00030666
 127        -0.00038375
 128         0.00010149
 129         0.00013974
 130        -0.00000000
 131        -0.11393655
 132        -0.00283008
 133         0.00285509
 134         0.00034019
 135        -0.00024614
 136         0.00000007
 137         0.00056771
 138        -0.00009645
 139        -0.00000014
 140         0.00031246
 141         0.00024234
 142         0.00016590
 143        -0.00004891
 144        -0.00000000
 145        -0.00000001
 146        -0.00121626
 147        -0.00084268
 148        -0.00020865
 149        -0.00002047
 150         0.00000000
 151         0.00012019
 152         0.00000272
 153         0.00004406
 154         0.00002286
 155         0.00000001
 156         0.00009218
 157        -0.00043958
 158        -0.00000970
 159        -0.00002371
 160        -0.00001982
 161         0.00009211
 162        -0.00043975
 163        -0.00000969
 164        -0.00002369
 165         0.00001982
Sym=     3a  
Ene=     0.0000
Spin= Alpha
Occup=    2.00000
   1         0.12539675
   2         0.00279381
   3         0.00043642
   4        -0.00012902
   5         0.00078862
   6        -0.00000020
   7        -0.00077068
   8         0.00184113
   9        -0.00000013
  10         0.00037232
  11        -0.00006380
  12        -0.00064925
  13        -0.00011225
  14        -0.00000005
  15        -0.00000001
  16        -0.36558459
  17        -0.00785981
  18         0.00173643
  19         0.00062305
  20        -0.00028420
  21        -0.00000013
  22         0.00111058
  23        -0.00111026
  24        -0.00000008
  25         0.00008079
  26         0.00037093
  27         0.00101938
  28         0.00015753
  29         0.00000001
  30        -0.00000000
  31         0.08140832
  32         0.00183031
  33         0.00119619
  34        -0.00041739
  35        -0.00040158
  36        -0.00000012
  37        -0.00078270
  38        -0.00041676
  39        -0.00000008
  40         0.00003791
  41         0.00013370
  42        -0.00047640
  43        -0.00014841
  44        -0.00000003
  45         0.00000005
  46        -0.38668044
  47        -0.00877955
  48         0.00297177
  49        -0.00036633
  50         0.00033443
  51        -0.00000006
  52        -0.00106267
  53        -0.00079498
  54        -0.00000001
  55         0.00037730
  56        -0.00001064
  57         0.00093823
  58        -0.00001763
  59         0.00000002
  60         0.00000003
  61         0.21219621
  62         0.00644682
  63        -0.00428863
  64         0.00124873
  65        -0.00112899
  66        -0.00000013
  67        -0.00014346
  68         0.00091381
  69        -0.00000015
  70        -0.00016695
  71         0.00002656
  72        -0.00051196
  73         0.00017657
  74         0.00000001
  75        -0.00000000
  76        -0.65052691
  77        -0.01548194
  78         0.00800395
  79        -0.00164137
  80        -0.00029153
  81        -0.00000024
  82        -0.00226754
  83         0.00007056
  84        -0.00000014
  85         0.00088533
  86         0.00090687
  87         0.00167351
  88         0.00023597
  89         0.00000001
  90        -0.00000004
  91         0.29050864
  92         0.00563712
  93        -0.00116089
  94        -0.00198702
  95         0.00100351
  96        -0.00000019
  97        -0.00106305
  98         0.00062151
  99        -0.00000004
 100        -0.00081073
 101        -0.00098267
 102        -0.00120898
 103        -0.00015640
 104         0.00000002
 105        -0.00000001
 106         0.26812818
 107         0.00477455
 108         0.00070269
 109        -0.00017612
 110        -0.00210589
 111         0.00000015
 112         0.00008045
 113        -0.00170604
 114         0.00000013
 115        -0.00116406
 116        -0.00075147
 117        -0.00132644
 118        -0.00004549
 119         0.00000000
 120        -0.00000004
 121        -0.00046683
 122        -0.00004315
 123         0.00005951
 124        -0.00024492
 125        -0.00000001
 126        -0.00036456
 127        -0.00030067
 128         0.00015828
 129         0.00010514
 130         0.00000000
 131         0.25352181
 132         0.00641000
 133        -0.00476864
 134        -0.00047292
 135         0.00034106
 136        -0.00000013
 137        -0.00073209
 138         0.00007312
 139        -0.00000002
 140        -0.00064657
 141        -0.00050342
 142        -0.00036344
 143         0.00013355
 144        -0.00000001
 145         0.00000000
 146         0.00194084
 147        -0.00070671
 148         0.00028188
 149         0.00010437
 150        -0.00000001
 151        -0.00030779
 152         0.00030845
 153        -0.00006769
 154        -0.00007731
 155        -0.00000001
 156        -0.00024319
 157         0.00067618
 158         0.00003247
 159         0.00005115
 160         0.00007407
 161        -0.00024309
 162         0.00067630
 163         0.00003248
 164         0.00005114
 165        -0.00007407
Sym=     4a  
Ene=     0.0000
Spin= Alpha
Occup=    2.00000
   1        -0.01500809
   2        -0.00052460
   3         0.00129971
   4         0.00028847
   5        -0.00024586
   6         0.00000007
   7        -0.00003822
   8         0.00024553
   9         0.00000008
  10        -0.00012079
  11        -0.00010123
  12        -0.00001760
  13         0.00002306
  14         0.00000000
  15         0.00000000
  16         0.00256133
  17        -0.00009678
  18        -0.00026061
  19        -0.00002286
  20         0.00001510
  21         0.00000001
  22        -0.00023154
  23         0.00035303
  24        -0.00000003
  25        -0.00002603
  26         0.00002379
  27        -0.00006490
  28         0.00004837
  29        -0.00000001
  30        -0.00000000
  31        -0.00681207
  32        -0.00043257
  33         0.00187573
  34         0.00038499
  35        -0.00013981
  36         0.00000001
  37        -0.00075697
  38         0.00025404
  39         0.00000012
  40        -0.00015015
  41        -0.00013954
  42        -0.00008361
  43        -0.00000359
  44        -0.00000000
  45        -0.00000001
  46         0.12950841
  47         0.00282898
  48        -0.00252211
  49        -0.00019475
  50        -0.00044738
  51         0.00000006
  52        -0.00114931
  53         0.00186520
  54         0.00000009
  55        -0.00013023
  56         0.00012360
  57        -0.00033140
  58         0.00012681
  59         0.00000002
  60        -0.00000001
  61        -0.17828371
  62        -0.00522256
  63         0.00812008
  64         0.00061158
  65        -0.00019873
  66        -0.00000006
  67        -0.00073812
  68        -0.00064420
  69        -0.00000001
  70        -0.00030168
  71        -0.00002227
  72         0.00032537
  73         0.00023122
  74        -0.00000001
  75         0.00000000
  76         0.14085955
  77         0.00352403
  78        -0.00387890
  79         0.00027290
  80         0.00036598
  81         0.00000006
  82        -0.00067286
  83        -0.00070562
  84         0.00000008
  85        -0.00020358
  86        -0.00007137
  87        -0.00041420
  88         0.00006664
  89         0.00000001
  90         0.00000000
  91        -0.01828826
  92        -0.00047724
  93         0.00058794
  94         0.00012820
  95        -0.00007241
  96        -0.00000001
  97        -0.00012380
  98         0.00002316
  99        -0.00000003
 100         0.00002380
 101         0.00000296
 102         0.00000313
 103        -0.00000988
 104         0.00000000
 105        -0.00000000
 106        -0.18825882
 107        -0.00366356
 108        -0.00095455
 109         0.00007318
 110         0.00112897
 111        -0.00000001
 112         0.00009713
 113         0.00069723
 114        -0.00000006
 115         0.00076086
 116         0.00058756
 117         0.00077395
 118         0.00000202
 119         0.00000001
 120         0.00000002
 121         0.00016633
 122         0.00017157
 123         0.00000770
 124         0.00006128
 125         0.00000000
 126         0.00015229
 127         0.00028749
 128        -0.00003670
 129        -0.00005941
 130        -0.00000001
 131         0.94358346
 132         0.02409010
 133        -0.01768327
 134         0.00104258
 135        -0.00076928
 136        -0.00000052
 137        -0.00064091
 138         0.00025451
 139        -0.00000021
 140        -0.00158498
 141        -0.00165531
 142        -0.00169800
 143         0.00000761
 144        -0.00000000
 145        -0.00000002
 146        -0.00043482
 147        -0.00026671
 148        -0.00006377
 149        -0.00009019
 150         0.00000000
 151        -0.00137231
 152         0.00173635
 153        -0.00023344
 154        -0.00026199
 155        -0.00000001
 156        -0.00143473
 157         0.00165364
 158         0.00002907
 159         0.00016437
 160         0.00027465
 161        -0.00143416
 162         0.00165418
 163         0.00002908
 164         0.00016434
 165        -0.00027466
Sym=     5a  
Ene=     0.0000
Spin= Alpha
Occup=    2.00000
   1        -0.04858154
   2        -0.00088390
   3        -0.00171466
   4         0.00024633
   5         0.00003388
   6         0.00000005
   7         0.00148012
   8        -0.00140023
   9        -0.00000006
  10         0.00000139
  11         0.00024444
  12         0.00030035
  13         0.00009312
  14        -0.00000001
  15         0.00000001
  16        -0.02134596
  17        -0.00074742
  18         0.00090482
  19        -0.00028956
  20         0.00004326
  21        -0.00000008
  22        -0.00185712
  23         0.00220990
  24        -0.00000006
  25         0.00011376
  26         0.00004654
  27        -0.00002337
  28         0.00000891
  29        -0.00000001
  30        -0.00000000
  31        -0.02185006
  32        -0.00023550
  33        -0.00203599
  34        -0.00039496
  35        -0.00000243
  36        -0.00000015
  37         0.00020432
  38         0.00118756
  39        -0.00000007
  40         0.00030290
  41         0.00020367
  42         0.00014384
  43        -0.00000163
  44        -0.00000000
  45         0.00000001
  46         0.01725677
  47         0.00033983
  48         0.00463759
  49         0.00103593
  50         0.00085796
  51         0.00000012
  52        -0.00203747
  53        -0.00171185
  54        -0.00000002
  55        -0.00058274
  56        -0.00041236
  57        -0.00019479
  58        -0.00027030
  59        -0.00000003
  60        -0.00000002
  61         0.88145116
  62         0.02252681
  63        -0.01425576
  64         0.00071740
  65        -0.00013988
  66         0.00000052
  67        -0.00224747
  68        -0.00050654
  69         0.00000013
  70        -0.00197437
  71        -0.00166985
  72        -0.00211876
  73         0.00000070
  74         0.00000005
  75        -0.00000004
  76         0.39020849
  77         0.00916706
  78         0.00074274
  79         0.00088551
  80        -0.00122140
  81         0.00000050
  82         0.00164842
  83         0.00095798
  84         0.00000038
  85        -0.00085645
  86        -0.00115372
  87        -0.00105614
  88        -0.00007880
  89        -0.00000002
  90         0.00000005
  91        -0.05239216
  92        -0.00146595
  93         0.00218796
  94         0.00029767
  95        -0.00005580
  96         0.00000008
  97        -0.00043055
  98         0.00010691
  99        -0.00000001
 100        -0.00000038
 101        -0.00002801
 102         0.00002383
 103         0.00001831
 104         0.00000001
 105         0.00000000
 106         0.19449415
 107         0.00401433
 108         0.00077760
 109        -0.00053035
 110        -0.00111142
 111         0.00000008
 112        -0.00026812
 113        -0.00046859
 114         0.00000003
 115        -0.00076983
 116        -0.00063021
 117        -0.00091622
 118         0.00000702
 119         0.00000001
 120        -0.00000002
 121        -0.00011065
 122        -0.00015699
 123        -0.00009776
 124         0.00002736
 125        -0.00000000
 126        -0.00024940
 127        -0.00020784
 128         0.00003365
 129         0.00002370
 130        -0.00000000
 131         0.14336080
 132         0.00336510
 133        -0.00146207
 134        -0.00148948
 135         0.00067581
 136         0.00000009
 137         0.00007050
 138        -0.00052308
 139         0.00000019
 140        -0.00077292
 141        -0.00047286
 142        -0.00033476
 143         0.00026924
 144         0.00000004
 145         0.00000000
 146        -0.00059896
 147         0.00072699
 148        -0.00007253
 149         0.00002963
 150         0.00000000
 151         0.00005282
 152         0.00046738
 153        -0.00001042
 154         0.00001018
 155        -0.00000001
 156        -0.00010078
 157         0.00088516
 158         0.00005243
 159        -0.00001380
 160        -0.00003025
 161        -0.00010081
 162         0.00088535
 163         0.00005243
 164        -0.00001381
 165         0.00003025
Sym=     6a  
Ene=     0.0000
Spin= Alpha
Occup=    2.00000
   1        -0.01548481
   2        -0.00041643
   3        -0.00002723
   4         0.00024227
   5         0.00015053
   6         0.00000001
   7        -0.00037648
   8         0.00021065
   9         0.00000008
  10         0.00014338
  11         0.00005742
  12         0.00005667
  13         0.00003342
  14        -0.00000000
  15         0.00000001
  16        -0.17567613
  17        -0.00511656
  18         0.00032115
  19        -0.00046242
  20         0.00039120
  21         0.00000006
  22        -0.00144610
  23        -0.00026762
  24         0.00000005
  25         0.00030465
  26         0.00036587
  27         0.00042504
  28         0.00000347
  29        -0.00000001
  30         0.00000001
  31         0.00155596
  32         0.00006572
  33         0.00087380
  34         0.00054317
  35        -0.00033396
  36         0.00000025
  37         0.00072134
  38        -0.00145907
  39         0.00000016
  40        -0.00027829
  41        -0.00011737
  42        -0.00003935
  43         0.00012644
  44         0.00000001
  45        -0.00000003
  46         0.39919213
  47         0.01181583
  48        -0.00489085
  49         0.00039598
  50         0.00167233
  51         0.00000007
  52         0.00208346
  53         0.00302598
  54         0.00000013
  55        -0.00061753
  56        -0.00078041
  57        -0.00100265
  58         0.00003315
  59         0.00000001
  60        -0.00000001
  61        -0.22206660
  62        -0.00630334
  63         0.00685284
  64        -0.00091265
  65        -0.00024180
  66        -0.00000010
  67         0.00192785
  68         0.00015251
  69         0.00000012
  70         0.00026544